6
Properties=species:S:1:pos:R:3 REF_energy=-0.024408426575327657
O 0.70789999 0.00000000 0.00000000
C -0.70789999 0.00000000 0.00000000
H -1.07319999 -0.76899999 0.68519998
H -1.07309997 -0.19470000 -1.01129997
H -1.06320000 0.97860003 0.33120000
H 0.99360001 -0.88040000 -0.29800001
9
Properties=species:S:1:pos:R:3 REF_energy=-0.03685495318626497
O -1.17120004 0.29969999 0.00000000
C -0.04630000 -0.56650001 0.00000000
C 1.21749997 0.26679999 0.00000000
H -0.09580000 -1.21200001 0.88190001
H -0.09520000 -1.19379997 -0.89459997
H 2.10500002 -0.37200001 -0.01770000
H 1.24259996 0.93070000 -0.87040001
H 1.26160002 0.90520000 0.88859999
H -1.12909997 0.83639997 0.80989999
12
Properties=species:S:1:pos:R:3 REF_energy=-0.04933256695263244
O 1.83809996 -0.16030000 -0.00380000
C -0.52999997 -0.50809997 0.00380000
C 0.59079999 0.51999998 0.00360000
C -1.89890003 0.14839999 -0.00360000
H -0.42760000 -1.16480005 -0.86849999
H -0.43650001 -1.15789998 0.88220000
H 0.54329997 1.15300000 -0.88779998
H 0.54769999 1.16320002 0.88819999
H -2.02999997 0.77170002 -0.89389998
H -2.68510008 -0.61299998 -0.00320000
H -2.03600001 0.77890003 0.88080001
H 1.88479996 -0.69709998 0.80570000
15
Properties=species:S:1:pos:R:3 REF_energy=-0.06178178838663273
O -2.41869998 0.34889999 -0.00690000
C -0.02450000 0.34209999 0.01940000
C 1.23599994 -0.51810002 0.00580000
C -1.28610003 -0.50900000 -0.00590000
C 2.49340010 0.33610001 -0.01250000
H -0.03620000 0.98610002 0.90770000
H -0.02610000 1.02119994 -0.84249997
H 1.23310006 -1.16949999 -0.87589997
H 1.25290000 -1.16729999 0.88889998
H -1.32720006 -1.14260006 -0.89749998
H -1.34490001 -1.15050006 0.87870002
H 2.52279997 0.97240001 -0.90270001
H 2.54320002 0.97950000 0.87180001
H 3.38380003 -0.30019999 -0.02020000
H -2.37529993 0.89200002 -0.81230003
18
Properties=species:S:1:pos:R:3 REF_energy=-0.074206742142358
O 3.06640005 0.24699999 -0.02150000
C -0.63489997 -0.39690000 0.02560000
C 0.67619997 0.38589999 0.01880000
C -1.84220004 0.54020000 0.00300000
C 1.88380003 -0.54040003 -0.00140000
C -3.14930010 -0.23590000 -0.02460000
H -0.67900002 -1.03439999 0.91689998
H -0.67000002 -1.05970001 -0.84770000
H 0.73299998 1.04059994 0.89749998
H 0.71340001 1.05110002 -0.85310000
H -1.82609999 1.18910003 0.88630003
H -1.79330003 1.19040000 -0.87819999
H 1.88049996 -1.18799996 -0.88389999
H 1.90950000 -1.17180002 0.89200002
H -3.21090007 -0.86949998 -0.91509998
H -3.24489999 -0.87459999 0.85930002
H -3.99920011 0.45359999 -0.03900000
H 3.05060005 0.78039998 -0.83440000
21
Properties=species:S:1:pos:R:3 REF_energy=-0.08666581145280827
O 3.69230008 0.35969999 0.00180000
C 0.02870000 -0.47330001 0.00290000
C -1.26010001 0.35360000 0.01580000
C 1.29709995 0.37840000 0.01750000
C -2.52940011 -0.49919999 0.02600000
C 2.55049992 -0.48550001 -0.02930000
C -3.77900004 0.36629999 -0.03470000
H 0.03230000 -1.11300004 -0.88840002
H 0.03350000 -1.14219999 0.87239999
H -1.25870001 1.00839996 0.89609998
H -1.26999998 1.00800002 -0.86470002
H 1.31589997 1.00810003 0.91560000
H 1.29949999 1.06980002 -0.83410001
H -2.52410007 -1.18280005 -0.83080000
H -2.55579996 -1.11440003 0.93269998
H 2.59960008 -1.17030001 0.82319999
H 2.58750010 -1.07480001 -0.95050001
H -4.67539978 -0.26159999 -0.02400000
H -3.82850003 1.04419994 0.82340002
H -3.79640007 0.96730000 -0.94950002
H 3.66759992 0.85640001 0.83740002
24
Properties=species:S:1:pos:R:3 REF_energy=-0.09913504312668753
O -4.32450008 0.30410001 -0.02120000
C 0.59160000 0.42670000 0.03980000
C -0.64730000 -0.47099999 0.01290000
C 1.90890002 -0.35409999 0.04960000
C -1.93050003 0.35810000 -0.01970000
C 3.14730000 0.54210001 0.00210000
C -3.17039990 -0.52469999 -0.00460000
C 4.42500019 -0.28119999 -0.05890000
H 0.55339998 1.07459998 0.92430001
H 0.57489997 1.08659995 -0.83660001
H -0.64679998 -1.11860001 0.89789999
H -0.60920000 -1.12460005 -0.86690003
H 1.94819999 -0.98280001 0.94770002
H 1.92449999 -1.03320003 -0.81220001
H -1.94509995 0.99629998 -0.91200000
H -1.96290004 1.04159999 0.83810002
H 3.09940004 1.19579995 -0.87639999
H 3.17140007 1.18799996 0.88720000
H -3.20539999 -1.13789999 0.90100002
H -3.20289993 -1.18820000 -0.87449998
H 4.51700020 -0.92780000 0.81959999
H 5.29860020 0.37740001 -0.08910000
H 4.44369984 -0.91159999 -0.95370001
H -4.30109978 0.82380003 -0.84280002
27
Properties=species:S:1:pos:R:3 REF_energy=-0.11164525023894534
O 4.94420004 -0.39760000 -0.04630000
C 0.02730000 -0.35980001 0.07380000
C -1.26460004 0.46239999 0.05830000
C 1.29419994 0.49579999 0.00440000
C -2.53189993 -0.39500001 0.05320000
C 2.54999995 -0.37470001 -0.00050000
C -3.78740001 0.47409999 -0.03560000
C 3.81750011 0.46790001 -0.02780000
C -5.04920006 -0.37300000 -0.07960000
H 0.05030000 -0.97250003 0.98350000
H 0.01760000 -1.05470002 -0.77530003
H -1.27839994 1.12759995 0.93059999
H -1.26320004 1.10630000 -0.83010000
H 1.31980002 1.17830002 0.86229998
H 1.27139997 1.11409998 -0.90100002
H -2.56559992 -1.00619996 0.96289998
H -2.50250006 -1.08449996 -0.79920000
H 2.53789997 -1.04809999 -0.86659998
H 2.56649995 -1.02400005 0.88380003
H -3.83470011 1.14830005 0.82740003
H -3.74539995 1.09979999 -0.93470001
H 3.85529995 1.10969996 -0.91369998
H 3.88800001 1.10049999 0.86220002
H -5.13859987 -0.99019998 0.82010001
H -5.04750013 -1.03460002 -0.95169997
H -5.93419981 0.26800001 -0.14110000
H 4.89010000 -0.93320000 -0.85610002
30
Properties=species:S:1:pos:R:3 REF_energy=-0.12424875119508738
O 5.61079979 0.31850001 -0.05000000
C -0.60740000 -0.41949999 0.06140000
C 0.67360002 0.41720000 0.04430000
C -1.88650000 0.42300001 0.05410000
C 1.91760004 -0.47440001 0.02000000
C -3.20269990 -0.36050001 0.04830000
C 3.19959998 0.36210001 -0.02670000
C -4.44229984 0.53200001 -0.01570000
C 4.45319986 -0.50419998 -0.02500000
C -5.71589994 -0.29409999 -0.11080000
H -0.60990000 -1.06299996 0.94970000
H -0.61739999 -1.08469999 -0.81089997
H 0.69980001 1.06610000 0.92780000
H 0.67159998 1.06970000 -0.83710003
H -1.87679994 1.08510005 0.92930001
H -1.86600006 1.07710004 -0.82700002
H 1.92859995 -1.11399996 0.91079998
H 1.88199997 -1.13590002 -0.85399997
H -3.25040007 -0.98839998 0.94650000
H -3.20230007 -1.04059994 -0.81260002
H 3.20260000 1.00080001 -0.91869998
H 3.23130012 1.04620004 0.83060002
H -4.48629999 1.16980004 0.87449998
H -4.37919998 1.19400001 -0.88700002
H 4.49770021 -1.13759995 0.86680001
H 4.47860003 -1.15190005 -0.90670002
H -6.59079981 0.36230001 -0.15200000
H -5.71479988 -0.91530001 -1.01209998
H -5.82369995 -0.94989997 0.75900000
H 5.59009981 0.87809998 0.74500000
