5
Properties=species:S:1:pos:R:3 REF_energy=-0.022678861854497134
C 0.00000000 0.00000000 0.00000000
H 0.55409998 0.79960001 0.49649999
H 0.68330002 -0.81339997 -0.25360000
H -0.77819997 -0.37349999 0.66920000
H -0.45930001 0.38740000 -0.91210002
8
Properties=species:S:1:pos:R:3 REF_energy=-0.03576065284907448
C -0.75599998 0.00000000 0.00000000
C 0.75599998 0.00000000 0.00000000
H -1.14040005 0.65859997 0.78450000
H -1.14040005 0.35010001 -0.96259999
H -1.14049995 -1.00870001 0.17810000
H 1.14040005 -0.35010001 0.96259999
H 1.14049995 1.00870001 -0.17810000
H 1.14040005 -0.65859997 -0.78450000
11
Properties=species:S:1:pos:R:3 REF_energy=-0.04819913632434558
C 0.00000000 -0.56889999 0.00000000
C -1.25709999 0.28439999 0.00000000
C 1.25709999 0.28450000 0.00000000
H 0.00000000 -1.21829998 0.88239998
H 0.00000000 -1.21829998 -0.88239998
H -1.29690003 0.92439997 0.88730001
H -1.29670000 0.92449999 -0.88720000
H -2.14750004 -0.35200000 -0.00010000
H 2.14750004 -0.35200000 0.00000000
H 1.29680002 0.92449999 0.88720000
H 1.29680002 0.92449999 -0.88720000
14
Properties=species:S:1:pos:R:3 REF_energy=-0.06064024338988938
C -0.56300002 0.51599997 0.00710000
C 0.56300002 -0.51590002 0.00710000
C -1.92929995 -0.15060000 -0.00710000
C 1.92939997 0.15050000 -0.00710000
H -0.47240001 1.16659999 -0.87059999
H -0.48249999 1.15509999 0.89399999
H 0.48249999 -1.15509999 0.89399999
H 0.47229999 -1.16649997 -0.87059999
H -2.05419993 -0.77100003 -0.90030003
H -2.06509995 -0.78560001 0.87419999
H -2.72029996 0.60600001 -0.00580000
H 2.05419993 0.77090001 -0.90030003
H 2.72020006 -0.60619998 -0.00590000
H 2.06520009 0.78539997 0.87430000
17
Properties=species:S:1:pos:R:3 REF_energy=-0.07307505531742664
C 0.00000000 0.34779999 -0.02280000
C 1.26209998 -0.51400000 -0.00010000
C -1.26209998 -0.51400000 -0.00010000
C 2.51979995 0.34009999 0.01150000
C -2.51990008 0.34009999 0.01150000
H 0.00000000 0.97829998 -0.92019999
H 0.00000000 1.02010000 0.84390002
H 1.27999997 -1.17100000 -0.87750000
H 1.25829995 -1.15760005 0.88739997
H -1.27989995 -1.17100000 -0.87739998
H -1.25820005 -1.15760005 0.88730001
H 2.54839993 0.98470002 0.89579999
H 2.57080007 0.97520000 -0.87879997
H 3.41009998 -0.29640001 0.02640000
H -2.54839993 0.98479998 0.89579999
H -3.41009998 -0.29640001 0.02630000
H -2.57089996 0.97500002 -0.87870002
20
Properties=species:S:1:pos:R:3 REF_energy=-0.08557398835585495
C 0.65579998 0.39350000 0.00010000
C -0.65579998 -0.39320001 0.02270000
C 1.86489999 -0.54130000 -0.01140000
C -1.86500001 0.54140002 0.00010000
C 3.17090011 0.23690000 -0.00010000
C -3.17090011 -0.23720001 -0.01150000
H 0.68400002 1.03880000 -0.88650000
H 0.70450002 1.04890001 0.87830001
H -0.69300002 -1.02250004 0.92030001
H -0.69520003 -1.06420004 -0.84410000
H 1.83369994 -1.20150006 0.86330003
H 1.83340001 -1.18030000 -0.90149999
H -1.84420002 1.19830000 0.87750000
H -1.82340002 1.18369997 -0.88739997
H 3.24850011 0.88559997 -0.87840003
H 4.02220011 -0.45100001 -0.00960000
H 3.24830008 0.86070001 0.89609998
H -3.23729992 -0.87910002 -0.89579999
H -3.25920010 -0.86809999 0.87879997
H -4.02209997 0.45050001 -0.02630000
23
Properties=species:S:1:pos:R:3 REF_energy=-0.09806255196384028
C 0.01210000 -0.50580001 0.02050000
C -1.25610006 0.35069999 0.00910000
C 1.26960003 0.36640000 0.02690000
C -2.54460001 -0.47400001 -0.02160000
C 2.53789997 -0.48640001 -0.00030000
C -3.80809999 0.37230000 -0.00710000
C 3.78909993 0.37680000 -0.02750000
H 0.00850000 -1.15620005 0.90340000
H 0.01940000 -1.15709996 -0.86180001
H -1.23759997 1.01530004 -0.86360002
H -1.26390004 0.99510002 0.89709997
H 1.27219999 1.00300002 0.91990000
H 1.25800002 1.03230000 -0.84460002
H -2.55049992 -1.10440004 -0.91869998
H -2.56310010 -1.14989996 0.84160000
H 2.56739998 -1.13740003 0.88120002
H 2.53169990 -1.13590002 -0.88340002
H -4.69530010 -0.26789999 -0.03070000
H -3.84270000 1.03600001 -0.87680000
H -3.85500002 0.98769999 0.89679998
H 3.80590010 1.01569998 -0.91630000
H 3.84249997 1.01800001 0.85810000
H 4.68389988 -0.25330001 -0.04530000
26
Properties=species:S:1:pos:R:3 REF_energy=-0.11059607893722223
C -0.60839999 -0.42860001 0.03870000
C 0.63200003 0.46770000 0.02880000
C -1.92509997 0.35339999 0.03070000
C 1.91620004 -0.36460000 0.01340000
C -3.16350007 -0.54159999 -0.03360000
C 3.15660000 0.52749997 -0.03510000
C -4.44290018 0.28099999 -0.02640000
C 4.43520021 -0.29480001 -0.01660000
H -0.58219999 -1.07679999 0.92330003
H -0.58139998 -1.08829999 -0.83770001
H 0.62210000 1.11780000 0.91189998
H 0.60439998 1.11880004 -0.85329998
H -1.93069994 1.03540003 -0.82870001
H -1.97370005 0.97899997 0.93059999
H 1.91260004 -1.03310001 -0.85619998
H 1.95220006 -0.99839997 0.90789998
H -3.16980004 -1.22749996 0.82139999
H -3.13199997 -1.15419996 -0.94190001
H 3.15750003 1.21089995 0.82209998
H 3.13689995 1.14370000 -0.94150001
H -4.51830006 0.88150001 0.88580000
H -4.48000002 0.95639998 -0.88709998
H -5.31629992 -0.37700000 -0.07290000
H 5.30929995 0.36280000 -0.05300000
H 4.48070002 -0.96840000 -0.87840003
H 4.50110006 -0.89740002 0.89480001
29
Properties=species:S:1:pos:R:3 REF_energy=-0.12321551554788246
C 0.00540000 0.37340000 -0.03880000
C -1.25419998 -0.49590001 -0.02700000
C 1.27250004 -0.48280001 -0.00380000
C -2.52040005 0.36359999 -0.02890000
C 2.53099990 0.38609999 0.01820000
C -3.81119990 -0.45719999 0.01430000
C 3.79719996 -0.47000000 0.01920000
C -5.07149982 0.39350000 0.03970000
C 5.05130005 0.38940001 0.00700000
H 0.01020000 1.00269997 -0.93709999
H -0.00540000 1.04610002 0.82749999
H -1.25709999 -1.15590000 -0.90270001
H -1.25059998 -1.13750005 0.86240000
H 1.25779998 -1.12750006 0.88340002
H 1.29340005 -1.14059997 -0.88120002
H -2.52760005 0.99659997 -0.92490000
H -2.49939990 1.03919995 0.83530003
H 2.52010012 1.02909994 0.90679997
H 2.53570008 1.04600000 -0.85799998
H -3.80250001 -1.10070002 0.90219998
H -3.84840012 -1.12049997 -0.85810000
H 3.80990005 -1.11450005 0.90579998
H 3.80430007 -1.12600005 -0.85900003
H -5.13369989 1.02479994 -0.85219997
H -5.96049976 -0.24410000 0.06940000
H -5.08680010 1.04190004 0.92129999
H 5.94430017 -0.24330001 0.00920000
H 5.09140015 1.03699994 0.88859999
H 5.08519983 1.02149999 -0.88599998
32
Properties=species:S:1:pos:R:3 REF_energy=-0.13585654746046294
C 0.66090000 0.38789999 0.06610000
C -0.64289999 -0.41610000 0.09720000
C 1.91410005 -0.48940000 0.02400000
C -1.89619994 0.46250001 0.06350000
C 3.18580008 0.36179999 0.00710000
C -3.19919991 -0.34299999 0.03420000
C 4.43809986 -0.51099998 -0.07350000
C -4.44980001 0.53049999 -0.07480000
C 5.70499992 0.32949999 -0.05680000
C -5.71579981 -0.31290001 -0.08700000
H 0.65450001 1.04610002 -0.81160003
H 0.70029998 1.03789997 0.94900000
H -0.66180003 -1.04069996 0.99860001
H -0.66159999 -1.09850001 -0.76160002
H 1.92620003 -1.15400004 0.89639997
H 1.88370001 -1.12629998 -0.86820000
H -1.89900005 1.12430000 0.93830001
H -1.85640001 1.10839999 -0.82239997
H 3.16090012 1.04550004 -0.85030001
H 3.22469997 0.98000002 0.91229999
H -3.17210007 -1.03740001 -0.81489998
H -3.26020002 -0.95590001 0.94209999
H 4.46019983 -1.20940006 0.77109998
H 4.41540003 -1.11109996 -0.99049997
H -4.48869991 1.22889996 0.76910001
H -4.40520000 1.12989998 -0.99129999
H 6.58790016 -0.31450000 -0.11620000
H 5.77419996 0.91670001 0.86449999
H 5.72940016 1.01900005 -0.90670002
H -6.59819984 0.32990000 -0.16550000
H -5.72020006 -1.00150001 -0.93790001
H -5.80439997 -0.90079999 0.83200002
