13
Properties=species:S:1:pos:R:3 REF_energy=-0.04252133242817324
O 1.45729995 -1.04380000 0.26820001
O 1.24919999 1.11650002 -0.40470001
N -1.41050005 1.15069997 0.18210000
C -0.70850003 -0.11360000 0.39370000
C -1.33449996 -1.20000005 -0.47020000
C 0.74699998 0.09030000 0.03080000
H -0.76660001 -0.37369999 1.45580006
H -0.85799998 -2.16950011 -0.28780001
H -2.40229988 -1.31270003 -0.25209999
H -1.22479999 -0.97970003 -1.53840005
H -2.39159989 1.04200006 0.43759999
H -1.40709996 1.38750005 -0.80989999
H 2.40619993 -0.93409997 0.04470000
26
Properties=species:S:1:pos:R:3 REF_energy=-0.08544246026070756
O -2.30270004 -1.95350003 -0.20400000
O -3.44359994 -0.53149998 1.14649999
N -2.89170003 1.60210001 -0.33390000
N 1.96420002 -0.23570000 0.04970000
N 3.91810012 -1.41670001 -0.34970000
N 4.13679981 0.76270002 0.28049999
C -0.76980001 0.49290001 -0.86970001
C -0.17129999 0.87480003 0.49210000
C -2.29879999 0.35600001 -0.81309998
C 1.34469998 1.03260005 0.43730000
C -2.74589992 -0.72070003 0.15860000
C 3.25990009 -0.26300001 0.00560000
H -0.33710000 -0.45370001 -1.21459997
H -0.49869999 1.25399995 -1.61249995
H -0.59460002 1.82110000 0.84740001
H -0.41859999 0.10880000 1.23689997
H -2.70190001 0.12020000 -1.80379999
H 1.60080004 1.82029998 -0.28169999
H 1.69490004 1.34010005 1.43009996
H -3.90799999 1.54209995 -0.38760000
H -2.62120008 2.36849999 -0.94919997
H -2.60249996 -2.64770007 0.42080000
H 3.40650010 -2.26110005 -0.58179998
H 4.93050003 -1.45889997 -0.38999999
H 5.13950014 0.62510002 0.21269999
H 3.82080007 1.68570006 0.55610001
22
Properties=species:S:1:pos:R:3 REF_energy=-0.07760312812132808
O 1.10329998 -1.28600001 1.26730001
O 1.55369997 -1.05089998 -0.94260001
N 1.73130000 1.75450003 0.01200000
C -1.80209994 0.19050001 -0.40869999
C -0.56430000 1.07930005 -0.64940000
C 0.62489998 0.84079999 0.29480001
C -2.34229994 0.31830001 1.01600003
C -1.45089996 -1.27190006 -0.69840002
C 1.14639997 -0.57470000 0.10900000
H -2.58240008 0.50840002 -1.11140001
H -0.24450000 0.95730001 -1.69369996
H -0.87980002 2.12730002 -0.55309999
H 0.32670000 0.98799998 1.33749998
H -1.64880002 -0.08030000 1.76289999
H -2.54469991 1.36609995 1.26100004
H -3.28279996 -0.23469999 1.11549997
H -0.85900003 -1.38709998 -1.61090004
H -0.99140000 -1.79630005 0.13980000
H -2.38660002 -1.81669998 -0.88230002
H 1.41540003 2.71589994 0.13720000
H 1.99860001 1.67850006 -0.96939999
H 1.43470001 -2.20129991 1.14600003
24
Properties=species:S:1:pos:R:3 REF_energy=-0.08637632789944982
O -2.79080009 -1.62349999 -0.33180001
O -3.56369996 0.26150000 0.66090000
N -1.50259995 1.76900005 -0.07180000
N 4.85790014 -0.39420000 0.29179999
C 1.16740000 0.32920000 -0.30509999
C -0.15549999 -0.29580000 0.15860000
C 2.40660000 -0.38260001 0.24349999
C -1.41349995 0.35330001 -0.43230000
C 3.68829989 0.30059999 -0.23310000
C -2.69420004 -0.31750000 0.01950000
H 1.20029998 1.38180006 0.00090000
H 1.20159996 0.31619999 -1.40170002
H -0.20450000 -0.26199999 1.25539994
H -0.14790000 -1.36140001 -0.10510000
H 2.39820004 -1.43060005 -0.08100000
H 2.36890006 -0.38319999 1.34010005
H -1.38290000 0.28909999 -1.52629995
H 3.70770001 1.34449995 0.09850000
H 3.73259997 0.29699999 -1.32749999
H -1.56739998 1.86759996 0.94050002
H -2.35249996 2.17499995 -0.46090001
H 4.84170008 -0.37239999 1.31060004
H 5.70139980 0.10290000 0.00880000
H -3.62730002 -2.02690005 -0.01600000
23
Properties=species:S:1:pos:R:3 REF_energy=-0.06779085411470298
O -1.56060004 -1.54799998 -1.03719997
O -3.18630004 -1.02359998 0.45539999
N -2.79450011 1.63259995 -0.11180000
C -0.60900003 0.98119998 0.79049999
C -1.66520000 0.72409999 -0.29570001
C 0.75929999 0.46120000 0.41409999
C 1.10819995 -0.83550000 0.75370002
C 1.63699996 1.29130006 -0.26330000
C -2.22589993 -0.68589997 -0.22490001
C 2.37080002 -1.31570005 0.40619999
C 2.89960003 0.81089997 -0.61089998
C 3.26650000 -0.49250001 -0.27610001
H -0.91799998 0.53780001 1.74710000
H -0.51609999 2.05890012 0.98589998
H -1.26540005 0.89429998 -1.30200005
H 0.41929999 -1.48399997 1.28719997
H 1.35950005 2.30679989 -0.53070003
H -2.47440004 2.59680009 -0.19769999
H -3.15869999 1.54499996 0.83679998
H 2.65669990 -2.33049989 0.66720003
H 3.59699988 1.45159996 -1.14279997
H 4.24959993 -0.86650002 -0.54680002
H -1.93620002 -2.45309997 -0.99559999
17
Properties=species:S:1:pos:R:3 REF_energy=-0.0568601333195764
O 2.16170001 -0.95090002 -0.11190000
O 1.56879997 1.21640003 -0.49529999
N -0.78070003 0.93140000 0.77700001
C 0.08340000 -0.24760000 0.72509998
C -0.72350001 -1.31710005 -0.00310000
C -1.98880005 -0.61059999 -0.47520000
C -1.64989996 0.86350000 -0.39330000
C 1.32889998 0.11490000 -0.02350000
H 0.36250001 -0.55220002 1.73889995
H -0.98729998 -2.14289999 0.66710001
H -0.19190000 -1.74109995 -0.86240000
H -2.27979994 -0.91570002 -1.48479998
H -2.81870008 -0.84850001 0.20180000
H -1.12039995 1.19319999 -1.29449999
H -2.54239988 1.48310006 -0.26940000
H -0.25090000 1.80030000 0.80229998
H 2.98370004 -0.73409998 -0.60140002
14
Properties=species:S:1:pos:R:3 REF_energy=-0.043379067570576746
O 1.91639996 1.03059995 -0.20640001
O -0.91469997 1.47300005 0.69279999
O -1.68760002 0.04390000 -0.89560002
N -0.17829999 -1.96140003 0.31450000
C 0.24990000 -0.57190001 0.46740001
C 1.50430000 -0.32290000 -0.36530000
C -0.88999999 0.30870000 -0.00750000
H 0.43509999 -0.37070000 1.52849996
H 2.32929993 -0.97350001 -0.05560000
H 1.31980002 -0.48580000 -1.43280005
H -0.38310000 -2.16140008 -0.66380000
H -1.04209995 -2.11820006 0.83209997
H 2.10220003 1.17060006 0.73780000
H -1.64320004 2.06069994 0.39910001
17
Properties=species:S:1:pos:R:3 REF_energy=-0.0549402253036797
O -1.71060002 -1.18470001 0.35810000
O 0.97579998 -1.68110001 0.13100000
O 2.02139997 0.15050000 -0.70069999
N 0.40529999 1.86689997 0.57429999
C -1.35440004 0.18799999 0.20430000
C 0.06640000 0.44880000 0.72850001
C -1.52550006 0.55140001 -1.26540005
C 1.12160003 -0.33980000 -0.03000000
H 0.14530000 0.16990000 1.78569996
H -2.07410002 0.77090001 0.79210001
H -1.32729995 1.60969996 -1.45790005
H -2.55180001 0.33759999 -1.58560002
H -0.87620002 -0.05310000 -1.90779996
H 1.30760002 2.05150008 1.01150000
H -0.27450001 2.43569994 1.07770002
H -1.60699999 -1.40929997 1.29849994
H 1.66410005 -2.18429995 -0.35400000
27
Properties=species:S:1:pos:R:3 REF_energy=-0.06939135001130614
O 1.47619998 -0.81540000 1.72819996
O 2.55979991 -1.94719994 0.08790000
N -1.64740002 2.00440001 0.54820001
N 3.87590003 0.36550000 -0.58319998
C 0.14749999 1.13230002 -0.42359999
C 1.50650001 0.98449999 -0.98299998
C -0.86669999 0.13490000 -0.38589999
C 2.56010008 0.48809999 0.04020000
C -1.98230004 0.70779997 0.22860000
C -0.36250001 2.27020001 0.15790001
C -0.94309998 -1.20449996 -0.81690001
C -3.17510009 0.00550000 0.43460000
C 2.20830011 -0.88520002 0.58600003
C -2.12980008 -1.91929996 -0.61760002
C -3.22740006 -1.32159996 -0.00120000
H 1.47239995 0.29409999 -1.83700001
H 1.83459997 1.94970000 -1.39269996
H 2.63910007 1.19019997 0.87889999
H 0.07230000 3.24489999 0.33039999
H -2.26200008 2.66389990 1.00510001
H -0.10010000 -1.68640006 -1.30350006
H -4.03009987 0.46990001 0.91430002
H -2.19479990 -2.95219994 -0.94900000
H 4.57149982 0.13480000 0.12549999
H 4.15490007 1.26569998 -0.97170001
H -4.13929987 -1.89530003 0.14340000
H 1.26170003 -1.70570004 2.07969999
24
Properties=species:S:1:pos:R:3 REF_energy=-0.06705363318702906
O -1.77269995 -1.63129997 -0.99309999
O 4.21829987 -0.63510001 -0.39469999
O -3.48009992 -1.15840006 0.42340001
N -3.23869991 1.49469995 -0.23510000
C -1.04929996 1.02100003 0.76330000
C -2.04789996 0.65530002 -0.34580001
C 0.36179999 0.57740003 0.45289999
C 0.78030002 -0.67979997 0.85530001
C 1.20770001 1.43729997 -0.22759999
C -2.51970005 -0.78460002 -0.23780000
C 2.08270001 -1.08910000 0.56900001
C 2.51009989 1.02800000 -0.51410002
C 2.94759989 -0.23530000 -0.11580000
H -1.36310005 0.59450001 1.72609997
H -1.03219998 2.10890007 0.91900003
H -1.62460005 0.81349999 -1.34449995
H 0.11580000 -1.35119998 1.39139998
H 0.87519997 2.42170000 -0.54400003
H -2.97770000 2.47370005 -0.34860000
H -3.62969995 1.41900003 0.70380002
H 2.41140008 -2.07540011 0.88529998
H 3.17899990 1.69729996 -1.04820001
H -2.09120011 -2.55679989 -0.92820001
H 4.34940004 -1.53390002 -0.04670000
19
Properties=species:S:1:pos:R:3 REF_energy=-0.06624406936082838
O -1.54499996 -1.47329998 -0.26339999
O -1.73080003 0.37630001 1.03009999
N -0.25610000 1.76730001 -0.85689998
C 1.38039994 0.01300000 -0.23070000
C -0.04640000 0.32429999 -0.74449998
C 1.73179996 -1.47739995 -0.16260000
C 1.65180004 0.68379998 1.12000000
C -1.18579996 -0.21390000 0.10800000
H 2.08430004 0.45710000 -0.94950002
H -0.15920000 -0.09710000 -1.75160003
H 1.55669999 -1.95850003 -1.13039994
H 1.12880003 -1.99479997 0.59050000
H 2.78660011 -1.61679995 0.09670000
H 0.98860002 0.29699999 1.90069997
H 2.68239999 0.49309999 1.44029999
H 1.52869999 1.77010000 1.07169998
H -1.14150000 1.95070004 -1.32790005
H 0.46790001 2.17409992 -1.44809997
H -2.27480006 -1.82280004 0.29120001
17
Properties=species:S:1:pos:R:3 REF_energy=-0.04816400562237866
O 0.69989997 -1.59089994 0.89560002
O 2.01889992 -0.91670001 -0.82029998
O -2.14540005 -0.60979998 -1.06029999
N 1.78050005 1.68340003 0.08540000
N -2.10319996 0.15650000 1.10810006
C 0.69900000 0.74360001 0.39060000
C -0.51740003 1.06659997 -0.47970000
C 1.22749996 -0.64569998 0.07400000
C -1.65970004 0.11300000 -0.19340000
H 0.48220000 0.81269997 1.46109998
H -0.86909997 2.08890009 -0.29449999
H -0.27320001 0.98670000 -1.54659998
H 2.03559995 1.61930001 -0.89940000
H 2.61350012 1.44029999 0.62000000
H -1.71550000 0.79049999 1.79900002
H -2.86599994 -0.43700001 1.41700006
H 1.03410006 -2.48819995 0.68229997
16
Properties=species:S:1:pos:R:3 REF_energy=-0.042875947110665225
O 0.87650001 -1.74769998 0.46120000
O -2.54679990 0.20850000 -1.01100004
O 2.00790000 -0.58910000 -1.12720001
O -1.80209994 -0.77920002 0.89870000
N 1.74450004 1.67879999 0.40549999
C 0.72719997 0.63749999 0.54990000
C -0.59570003 1.11590004 -0.06130000
C 1.27479994 -0.59799999 -0.14700000
C -1.68640006 0.07320000 0.03120000
H 0.60509998 0.41580001 1.61660004
H -0.43910000 1.35300004 -1.12189996
H -0.95529997 2.02029991 0.44260001
H 2.59319997 1.39919996 0.89649999
H 1.42470002 2.53410006 0.85860002
H 1.24030006 -2.54169989 0.01460000
H -3.26650000 -0.45730001 -0.97970003
20
Properties=species:S:1:pos:R:3 REF_energy=-0.061753633197056956
O -2.13890004 1.63699996 0.50989997
O -2.67729998 0.24750000 -1.19729996
O 2.90389991 0.25510001 1.03509998
N -1.47889996 -1.89219999 -0.02910000
N 3.24410009 0.19320001 -1.23850000
C 0.13380000 -0.23549999 0.87580001
C -1.34239995 -0.60860002 0.65899998
C 1.00320005 -0.14579999 -0.38389999
C -2.11579990 0.43560001 -0.12570000
C 2.46830010 0.11360000 -0.10510000
H 0.19040000 0.72359997 1.40709996
H 0.57830000 -0.97640002 1.55449998
H -1.83190000 -0.70410001 1.63549995
H 0.94999999 -1.08210003 -0.95090002
H 0.63389999 0.65679997 -1.03310001
H -1.13600004 -1.81860006 -0.98580003
H -2.46479988 -2.14199996 -0.09880000
H 2.85599995 0.07800000 -2.16930008
H 4.24139977 0.36970001 -1.17809999
H -2.64499998 2.30809999 0.00410000
19
Properties=species:S:1:pos:R:3 REF_energy=-0.056085858321344384
O 1.86730003 1.47399998 -1.00530005
O -3.11630011 0.70709997 1.07939994
O 2.58780003 0.74100000 1.01540005
O -2.91840005 -0.23469999 -0.97890002
N 1.68060005 -1.77970004 0.58939999
C -0.12380000 -0.66490000 -0.71460003
C 1.38559997 -0.79699999 -0.45120001
C -0.96090001 -0.08320000 0.42789999
C 2.01370001 0.52410001 -0.04400000
C -2.41560006 0.11320000 0.08180000
H -0.52819997 -1.64859998 -0.98940003
H -0.26679999 -0.03370000 -1.60220003
H 1.88360000 -1.12679994 -1.37080002
H -0.91289997 -0.74860001 1.29690003
H -0.56430000 0.89670002 0.71560001
H 2.68790007 -1.92449999 0.64940000
H 1.27859998 -2.68050003 0.33270001
H 2.27130008 2.32750010 -0.73979998
H -4.06150007 0.82349998 0.84410000
10
Properties=species:S:1:pos:R:3 REF_energy=-0.030831319329314488
O -1.64870000 0.65710002 -0.01040000
O -0.48370001 -1.29340005 -0.00050000
N 1.90059996 -0.08120000 -0.00900000
C 0.73409998 0.78670001 0.00790000
C -0.50230002 -0.06910000 0.01200000
H 0.73259997 1.42149997 -0.88239998
H 0.74640000 1.40880001 0.90689999
H 1.87430000 -0.68440002 -0.83010000
H 1.88870001 -0.69690001 0.80309999
H -2.44470000 0.08390000 -0.02600000
20
Properties=species:S:1:pos:R:3 REF_energy=-0.05309215824465863
O -1.06889999 -1.69190001 -0.76599997
O -2.49460006 -1.12230003 0.90380001
N 1.67970002 0.14090000 1.16240001
N -2.74939990 1.36930001 -0.21780001
N 2.82010007 -0.33649999 -0.68250000
C -0.35789999 1.30040002 0.32170001
C -1.50619996 0.63970000 -0.45670000
C 0.96710002 0.60200000 0.11950000
C -1.74979997 -0.79170001 -0.01020000
C 1.65559995 0.31500000 -1.00310004
C 2.80430007 -0.42490000 0.62900001
H -0.59420002 1.31959999 1.39460003
H -0.24330001 2.34500003 0.00390000
H -1.31239998 0.64160001 -1.53550005
H 1.44410002 0.19430000 2.14499998
H 1.39919996 0.52990001 -2.03010011
H -2.64190006 2.33459997 -0.52800000
H -2.93580008 1.41980004 0.78350002
H 3.56550002 -0.88099998 1.24580002
H -1.24150002 -2.61420012 -0.48010001
22
Properties=species:S:1:pos:R:3 REF_energy=-0.07847532280114744
O 1.73179996 1.07089996 -1.22280002
O 2.25939989 0.47850001 0.90140003
N 0.62840003 -1.61119998 0.92650002
C -0.84990001 -0.19660001 -0.51130003
C 0.55989999 -0.80119997 -0.29319999
C -1.32840002 0.71619999 0.64249998
C -1.89090002 -1.29489994 -0.77939999
C -2.70519996 1.33749998 0.44850001
C 1.59490001 0.30070001 -0.11210000
H -0.80620003 0.42399999 -1.41709995
H 0.85839999 -1.41999996 -1.14649999
H -0.61019999 1.53380001 0.77600002
H -1.34720004 0.15960000 1.58650005
H -1.52419996 -1.99570000 -1.53740001
H -2.11859989 -1.86500001 0.12729999
H -2.82570004 -0.87379998 -1.16250002
H -2.76819992 1.85889995 -0.51179999
H -2.90269995 2.06529999 1.24240005
H -3.49749994 0.58469999 0.49110001
H 0.47260001 -1.03279996 1.75049996
H 1.56320000 -2.00559998 1.02600002
H 2.40770006 1.77119994 -1.10080004
