15
Properties=species:S:1:pos:R:3 REF_energy=-0.05582866320246116 REF_dipole="-0.23260572882490785,0.12126027746948931,-0.18765553294850834"
C 1.03137958 0.01425999 0.10506996
N 2.44863892 0.06179997 -0.19161993
O 3.10023880 1.10672963 0.48826984
C 4.38089800 1.25984955 -0.13576995
C 5.20035791 0.00175000 0.13112995
N 4.48199797 -1.23656952 -0.22779992
C 3.20494866 -1.08470964 -0.32058987
H 0.58821976 1.01057959 0.01366999
H 0.86143970 -0.35224986 1.12197959
H 0.51329982 -0.64695978 -0.59765977
H 4.87260818 2.13429928 0.30184987
H 4.25293827 1.44670951 -1.20911956
H 5.45448780 -0.05841998 1.19613945
H 6.13839769 0.04683998 -0.43254983
H 2.59011912 -1.96573925 -0.56801981
22
Properties=species:S:1:pos:R:3 REF_energy=-0.091087820536083 REF_dipole="0.5281237133627146,0.6773226358985536,-0.0915390450019401"
C 3.60576868 -1.21454954 -0.02292999
C 2.62662888 -0.20862992 0.57295978
N 3.17040873 1.15339947 0.71220970
C 2.09377909 2.07242918 1.09149957
C 4.37092876 1.24898958 1.57181942
C 4.99915838 2.65023899 1.51940942
C 4.16379833 0.83139974 3.03355908
H 3.08619881 -2.15415931 -0.24036990
H 4.42329836 -1.44826937 0.66573977
H 4.03186846 -0.84396964 -0.96127963
H 2.24644923 -0.58801979 1.52864945
H 1.76674926 -0.17346993 -0.10877996
H 1.27026951 2.01447916 0.36954987
H 2.42423892 3.11523890 1.07106960
H 1.68430936 1.85240936 2.08290935
H 5.13676786 0.58766979 1.14959955
H 4.40105820 3.39343858 2.05650926
H 5.12539816 2.98673892 0.48467982
H 5.99275780 2.63748908 1.98201931
H 3.43474889 1.46928954 3.54321861
H 5.10681772 0.90620971 3.58731866
H 3.82884860 -0.20728992 3.11454868
12
Properties=species:S:1:pos:R:3 REF_energy=-0.0355337074011004 REF_dipole="0.12491620843760565,-0.12487160280393594,-0.01993404388952802"
N 0.92422968 0.09540997 -0.03526999
C 2.26589918 0.01755999 -0.01327999
C 3.15897870 1.06570959 -0.00115000
C 4.51385880 0.62189978 0.01328999
C 4.60959816 -0.74912971 0.01440999
O 5.71426821 -1.48558950 0.02473999
S 3.07482886 -1.48888946 -0.00012000
H 0.42628986 0.97649968 0.01981999
H 0.35130987 -0.73953974 0.01559999
H 2.86021900 2.10608912 -0.00629000
H 5.37767792 1.27387953 0.02087999
H 5.39743805 -2.40574932 0.01909999
16
Properties=species:S:1:pos:R:3 REF_energy=-0.06570848098861559 REF_dipole="0.042871330315011724,0.0470838771863517,-0.00458527137407479"
C 2.47192907 -0.81456971 0.63531977
C 1.76094937 0.51582980 0.41121984
N 2.72295880 1.61730945 0.19023994
C 1.96829927 2.79633880 -0.27035990
N 3.55104876 1.85826933 1.24501944
C 4.74518824 2.18506908 0.87616962
H 1.73611927 -1.61896932 0.73571974
H 3.07612872 -0.80035967 1.54763949
H 3.12493873 -1.05918956 -0.20853993
H 1.11378956 0.73610973 1.26967955
H 1.11637962 0.39941984 -0.46945983
H 1.41092944 2.57396913 -1.18696952
H 2.65390897 3.61687875 -0.50976980
H 1.26912951 3.15016890 0.49554980
H 5.50832796 2.40645909 1.63847935
H 5.06055784 2.25684905 -0.17935993
15
Properties=species:S:1:pos:R:3 REF_energy=-0.059569768793648836 REF_dipole="0.12325572119689676,-0.07621047184904542,-0.04692042383058259"
C 2.82892895 -0.84714967 1.28291953
C 2.58631897 -0.08184997 -0.00995000
C 3.09696889 1.35388947 0.05140998
C 4.60039806 1.39987946 0.07126997
N 5.23221779 1.95748925 1.05198956
O 6.60786724 1.86841929 0.81103969
H 2.39425898 -1.84958923 1.21388948
H 2.36837912 -0.33638987 2.13462901
H 3.89871860 -0.95899963 1.48506939
H 1.50860941 -0.06467998 -0.20978992
H 3.06017900 -0.61901975 -0.83984965
H 2.69233894 1.87872922 0.92331964
H 2.77304888 1.88940930 -0.84779966
H 5.13178825 0.94924963 -0.78607970
H 6.98454762 2.32430911 1.58701944
18
Properties=species:S:1:pos:R:3 REF_energy=-0.06736556264253779 REF_dipole="0.2863065287162505,-0.08992165830628474,-0.2755414510226284"
C 0.89608967 -0.03503999 -0.19924992
C 2.38155913 0.08065996 0.02542999
C 2.80505896 -0.06887998 1.46315944
N 3.28091884 -0.48921981 -0.98717964
C 3.16552877 0.97544962 -0.92733967
C 4.37579870 1.76404941 -0.53691977
O 5.43947792 1.42754948 -1.42009950
H 0.62562972 0.08736997 -1.25381958
H 0.36703986 0.73440969 0.37253985
H 0.53477979 -1.01580966 0.12736996
H 3.88209844 -0.23559992 1.57009935
H 2.29983926 -0.92458963 1.92399919
H 2.53811908 0.82902968 2.02977920
H 2.75265908 -0.85905969 -1.78066933
H 2.65652895 1.43260944 -1.76941931
H 4.71067858 1.57045949 0.48495981
H 4.17730856 2.83611894 -0.62782979
H 5.42662811 0.45118985 -1.45737946
12
Properties=species:S:1:pos:R:3 REF_energy=-0.04930217784038693 REF_dipole="0.12299056670654462,0.08240155021310702,0.07585571878374575"
C 1.02360964 0.01292999 -0.07535997
C 2.51083922 -0.04575998 0.00237000
C 3.29628873 -0.73433971 -1.08096957
C 3.35560894 0.76293969 -0.94510967
H 0.64185977 0.78714973 0.59833974
H 0.59205979 -0.94547963 0.22939992
H 0.67103970 0.23964991 -1.08679962
H 2.85657883 -0.15948993 1.02330959
H 2.76339889 -1.14715958 -1.92893922
H 4.17020845 -1.30543959 -0.78678972
H 4.26882839 1.20279956 -0.56092983
H 2.86365914 1.35920942 -1.70556927
17
Properties=species:S:1:pos:R:3 REF_energy=-0.06338044215650496 REF_dipole="0.2804393572926582,0.20341623225086058,-0.30074885318707273"
C 3.09053898 -1.23880947 -0.26700991
C 2.40377903 0.03951998 0.19150993
O 1.68088925 -0.21629992 1.39339948
C 3.38865876 1.13679957 0.44643983
O 3.75181866 1.90486932 -0.71131974
C 2.98456883 2.58046889 0.29444990
C 3.71416855 3.66165876 1.00550961
H 3.63774848 -1.08187962 -1.20194960
H 2.35514927 -2.03640938 -0.41740984
H 3.79962850 -1.59896946 0.48729983
H 1.67256927 0.34416988 -0.56511974
H 2.29916906 -0.60272974 2.03579926
H 4.16684818 0.87794966 1.15171957
H 1.95294917 2.82534885 0.07856997
H 4.76635838 3.40759873 1.17262959
H 3.25108862 3.84975863 1.97952926
H 3.67596865 4.58826876 0.42503983
17
Properties=species:S:1:pos:R:3 REF_energy=-0.06560348708030062 REF_dipole="0.03526746918143156,0.007035976430742497,-0.08433414975345699"
C 4.24981880 -1.20645964 0.69593972
C 3.19999862 -0.16969994 0.32676986
N 3.79989862 1.13146949 0.05290998
O 4.20679855 1.81279922 1.21333957
C 3.27943897 2.88131905 1.41373956
C 4.62027836 1.34459949 -1.02467954
N 5.53622818 2.24433923 -1.14007962
H 3.77165866 -2.16375923 0.92546964
H 4.82664824 -0.89356965 1.57159948
H 4.95213842 -1.36936951 -0.12816995
H 2.47502899 -0.07572997 1.14394963
H 2.64088893 -0.50652981 -0.55377984
H 3.60755849 3.45697856 2.28300929
H 2.27815914 2.48745918 1.61361945
H 3.25832891 3.54814863 0.54452980
H 4.42884827 0.65201974 -1.86215925
H 5.55310822 2.74703884 -0.24508990
16
Properties=species:S:1:pos:R:3 REF_energy=-0.059860044543388335 REF_dipole="0.02182471373160566,-0.12308738282194276,-0.0110557056673658"
C 0.94667965 0.40896985 0.14265995
N 2.39572906 0.46759981 0.14832996
C 3.14347887 -0.77078968 0.00709000
C 3.24763894 -1.11268961 -1.44863939
C 2.79101896 -2.24374914 -2.00353932
C 3.06367874 1.66559947 0.28812990
O 4.28013802 1.81339931 0.30645987
H 0.51308984 1.41257942 0.16425994
H 0.61687976 -0.13866995 1.02993965
H 0.60282981 -0.10795996 -0.75691974
H 2.63854909 -1.55322933 0.58420974
H 4.15182877 -0.65160978 0.41765985
H 3.75491858 -0.38294986 -2.07682920
H 2.29296923 -3.00927901 -1.41709948
H 2.91693878 -2.42763925 -3.06650901
H 2.38392901 2.52740908 0.38952985
15
Properties=species:S:1:pos:R:3 REF_energy=-0.054216949030826855 REF_dipole="0.5332959743907444,0.8504180154686396,0.2550901331689267"
N 2.47452927 -1.39197946 1.12000954
C 2.74912882 -0.68237972 -0.00839000
N 2.61281896 -1.19723952 -1.18137956
C 3.24463892 0.74096972 0.11374996
C 4.76799822 0.75810975 0.11562996
C 5.28289795 2.13035917 0.24397990
C 5.70560789 3.25018883 0.34094986
H 2.31510901 -0.86558968 1.97259927
H 1.86114931 -2.19138932 1.02236962
H 2.30444908 -2.16812921 -1.10199964
H 2.84847903 1.18550956 1.03458953
H 2.85215902 1.32655942 -0.72652972
H 5.15180779 0.30493990 -0.80621970
H 5.14746809 0.14638995 0.94322968
H 6.08170795 4.24420834 0.41908982
14
Properties=species:S:1:pos:R:3 REF_energy=-0.05561106246451253 REF_dipole="-0.24009352224674263,0.05988467821587841,-0.037510984195520125"
N 1.16814959 -0.17674993 0.05319998
C 2.62682891 -0.11930995 0.09819996
C 3.10081887 1.32830954 -0.02890999
C 4.62068796 1.43200946 -0.01946999
O 5.15932798 0.94757962 1.20396960
H 0.87053972 -1.14841962 0.13462995
H 0.83944970 0.14410995 -0.85639971
H 3.03915906 -0.72805971 -0.71368968
H 2.96719885 -0.55038983 1.04546964
H 2.69256902 1.91348922 0.80507970
H 2.72069907 1.76845932 -0.95879960
H 4.93363857 2.47338915 -0.14220995
H 5.05648851 0.85000974 -0.83670974
H 4.76774836 1.47320950 1.92391920
16
Properties=species:S:1:pos:R:3 REF_energy=-0.05543590080169958 REF_dipole="0.5875347674624862,-0.21230232212726818,-0.3263074052708497"
C 0.71070975 -1.01395965 -0.30415988
C 2.03917933 -0.32350987 -0.01523999
C 3.13183880 -0.85026968 -0.93752968
O 1.91248930 1.08806956 -0.26791990
C 1.40874946 1.82541931 0.74571973
N 1.33330953 3.12180877 0.37355986
O 1.06000960 1.41927946 1.84161925
H -0.07686997 -0.63720971 0.35654989
H 0.78836972 -2.09642911 -0.16424994
H 0.38112983 -0.81452966 -1.32983947
H 2.34533906 -0.50304979 1.02275956
H 2.88760877 -0.65759975 -1.98813915
H 3.28218889 -1.92578924 -0.80306971
H 4.07892847 -0.33799988 -0.73623973
H 1.62240934 3.39593863 -0.55182981
H 0.96278960 3.79728842 1.02386963
18
Properties=species:S:1:pos:R:3 REF_energy=-0.07139758050820788 REF_dipole="0.052109753066236664,0.32581020069070776,-0.028429164986027433"
N 0.66893977 -0.18122992 -0.49996981
C 2.14128923 -0.26917988 -0.37586987
C 2.62891912 -1.44001949 -1.25123954
O 2.11694932 -1.30612957 -2.57616901
C 2.80752897 1.05482960 -0.81481969
C 2.51005912 2.20129895 0.11957996
C 1.91361928 3.33977890 -0.25888991
H 0.34747985 0.64788979 0.00401000
H 0.24482991 -0.97932959 -0.02596999
H 2.40161896 -0.47546983 0.66951972
H 2.27108908 -2.39469910 -0.85082966
H 3.72131872 -1.47832954 -1.30098951
H 1.22587955 -0.91608965 -2.45129895
H 2.50949907 1.30755949 -1.84046924
H 3.89648843 0.92007965 -0.83289969
H 2.82174873 2.08769917 1.15536964
H 1.59600937 3.50211859 -1.28423953
H 1.73532939 4.13938856 0.45358983
15
Properties=species:S:1:pos:R:3 REF_energy=-0.05454086487266108 REF_dipole="0.0805067340477289,-0.2910799396711554,-0.22186344639122513"
C 0.51430982 -0.24748991 0.06276998
C 1.96818924 -0.52633977 0.30264989
C 2.45219922 -1.74464941 0.57264978
O 2.83613896 0.58492976 0.36954987
C 2.92627883 1.35944939 -0.75933969
C 3.86288857 2.50096917 -0.49435982
O 2.35641932 1.18078959 -1.82700932
H 0.19592993 0.63017976 0.63460976
H -0.11216996 -1.08892965 0.37797987
H 0.31542987 -0.06589998 -0.99693960
H 1.81199932 -2.62051892 0.57792979
H 3.50534868 -1.89175928 0.78820968
H 4.84389830 2.11666918 -0.20347993
H 3.45238876 3.14279866 0.28902987
H 3.98044848 3.09288883 -1.40683949
13
Properties=species:S:1:pos:R:3 REF_energy=-0.03558905919207911 REF_dipole="-0.04742335888046251,0.1520653818247688,0.157737999536121"
O 1.07144964 -0.28598988 0.30403990
S 2.42165923 -0.03399999 -0.14912996
O 2.75381899 0.24114992 -1.52939951
C 3.16368866 1.21558952 0.88804966
C 4.53384829 0.65933979 1.21532953
C 4.30109835 -0.82722968 1.41316950
O 3.39498878 -1.23059952 0.39163986
H 2.54965901 1.31252956 1.78826940
H 3.20261884 2.16673923 0.35377988
H 5.19837809 0.81168967 0.35602984
H 4.98880816 1.13604963 2.08764911
H 5.22901773 -1.39885938 1.32691956
H 3.84381866 -1.03486967 2.38603902
14
Properties=species:S:1:pos:R:3 REF_energy=-0.05670400817323051 REF_dipole="0.015161165247280173,0.02801175035512471,-0.16648278127760252"
C 1.02379954 0.06947997 0.18129994
C 2.50203896 -0.16365995 0.02825999
C 3.00944901 -1.40501940 -0.06547997
C 3.37482858 1.06689954 -0.05568998
C 3.46677876 1.73242939 1.25217950
C 3.54657865 2.28029919 2.31832910
H 0.80682969 0.57812977 1.12577963
H 0.45807984 -0.86839968 0.17368993
H 0.64991975 0.68738973 -0.64161974
H 2.37436914 -2.28447914 -0.01582999
H 4.07526827 -1.57617939 -0.18449993
H 2.96588874 1.75458932 -0.80516970
H 4.38306808 0.80360973 -0.39813983
H 3.61644864 2.76236892 3.26591873
17
Properties=species:S:1:pos:R:3 REF_energy=-0.06804900951198367 REF_dipole="0.10085428413648678,-0.22862661768588383,0.08014725867613615"
C 2.55926895 -0.58533978 1.43715954
C 2.58850884 0.01078000 0.03768999
C 3.13400888 1.39861941 0.01846999
C 4.25788832 1.82630932 -0.55703980
C 4.40651846 3.28532887 -0.35486984
O 3.24076891 3.70193863 0.37603986
C 2.42981911 2.54497910 0.65070975
H 2.18872929 -1.61484945 1.39992940
H 1.89943933 -0.01680999 2.10057926
H 3.56000876 -0.60192978 1.88168931
H 1.57555938 0.01380999 -0.38132983
H 3.19176888 -0.63817978 -0.60866976
H 4.96536779 1.21634960 -1.09739959
H 5.29694796 3.52593875 0.23278990
H 4.43819857 3.82692862 -1.30437958
H 1.43760943 2.70600891 0.21954991
H 2.34503913 2.43321896 1.73528945
19
Properties=species:S:1:pos:R:3 REF_energy=-0.07396209839110623 REF_dipole="0.030702511765705376,-0.010252356057313228,0.3603681261485927"
C 3.01166892 -1.03313959 -0.70814973
C 2.38649917 0.14050995 0.02916999
C 3.32112885 1.31096959 0.09400997
C 3.44915867 2.33234906 -1.01690960
C 2.66284895 2.25850916 -2.28130913
C 2.76226902 2.70016909 0.27282989
O 3.49375868 3.56445861 1.15236962
H 2.32313919 -1.88335931 -0.72378969
H 3.93886852 -1.35242951 -0.22158992
H 3.25107884 -0.76716971 -1.74212933
H 2.14392924 -0.16970994 1.05278957
H 1.43727946 0.40685984 -0.44883984
H 4.22042847 1.06014955 0.64730972
H 4.43904829 2.73419905 -1.20355952
H 1.61743939 1.98212934 -2.11524916
H 3.10906887 1.52604938 -2.96084905
H 2.67234898 3.23219872 -2.78199887
H 1.68296945 2.81952882 0.25867990
H 4.45308828 3.41654873 1.10317957
18
Properties=species:S:1:pos:R:3 REF_energy=-0.06853980467247522 REF_dipole="0.41081479021970124,-0.2654840419045028,0.11755184850163236"
C 2.94572878 -1.03721964 -0.91044968
C 2.43312907 -0.08518997 0.16293994
C 3.09392881 1.30474961 0.10914996
N 2.41170907 2.20222926 1.04638958
C 4.57309818 1.23645949 0.39392984
C 5.31166792 2.18898916 1.30549955
O 4.92203808 0.87907964 1.74262929
H 2.38886905 -1.97883928 -0.87291968
H 4.00429869 -1.27313948 -0.76742971
H 2.81721902 -0.60778975 -1.90954924
H 2.58906913 -0.54579979 1.14637947
H 1.34884953 0.01821999 0.02892999
H 2.96443892 1.72337937 -0.89612967
H 2.55745912 1.83761930 1.99069929
H 1.40744948 2.16362929 0.88654965
H 5.13612795 0.78324974 -0.41203985
H 4.79108858 3.04054880 1.72507930
H 6.36594772 2.36027908 1.12103951
17
Properties=species:S:1:pos:R:3 REF_energy=-0.06833033310511127 REF_dipole="0.09808976847109507,0.12113369402925378,0.03821094744250636"
C 2.47779918 -0.99996960 -0.42406985
O 2.18471909 0.31297988 0.03483999
C 3.32305861 1.18698955 -0.01092000
C 3.53052878 1.76075935 -1.42487943
C 2.95125890 3.13722873 -1.33853948
C 2.68091893 3.48597860 -0.07899997
C 3.03855896 2.40298915 0.88855970
H 1.55974936 -1.59187949 -0.37640986
H 3.22617888 -1.46989954 0.22125992
H 2.82979894 -0.98902959 -1.45913947
H 4.20706844 0.64623970 0.34802988
H 3.02034903 1.17978954 -2.19784927
H 4.59572840 1.83261943 -1.66838932
H 2.78993893 3.77058864 -2.20053935
H 2.27075911 4.44055843 0.22239992
H 3.93361855 2.70033884 1.44526947
H 2.22075915 2.21614933 1.59113932
17
Properties=species:S:1:pos:R:3 REF_energy=-0.06499766006959495 REF_dipole="0.06239495940821316,0.028342222812579976,0.08815109107536578"
C 3.30063868 -0.94157964 1.94270921
C 3.36161852 -0.79716974 0.44694981
C 3.19180870 -1.85282934 -0.36764985
C 3.57686853 0.59937978 -0.08760997
C 5.02045774 1.03654969 0.13533996
N 5.97961760 0.67227978 -0.76095974
N 5.37764788 1.72323930 1.17260957
H 4.26380825 -0.68897974 2.39556909
H 3.04939890 -1.96331930 2.24602914
H 2.53494906 -0.27760991 2.35662913
H 3.02032876 -2.85110879 0.02590999
H 3.21339869 -1.75047934 -1.44863939
H 2.89518881 1.30342948 0.40212986
H 3.36852884 0.64729977 -1.16334951
H 5.84171820 -0.22162992 -1.21692955
H 6.91223764 0.79282969 -0.37970984
H 4.56469822 1.91732919 1.76653934
15
Properties=species:S:1:pos:R:3 REF_energy=-0.055947139490216236 REF_dipole="0.17772945596649703,-0.6098931960910157,-0.08969438545686548"
C 1.86340940 -0.96224964 -0.11602996
C 3.22352886 -0.35998988 0.11496996
O 4.18867874 -1.05364966 0.42933986
C 3.35797882 1.10820961 -0.10261996
C 4.53967810 1.72157931 0.06491998
C 4.81114817 3.17963886 -0.12062996
O 3.68906856 3.84271836 -0.67972976
H 1.07652962 -0.21071993 -0.01338000
H 1.68324935 -1.74075937 0.63073975
H 1.82605922 -1.39396954 -1.11942959
H 2.46549892 1.65170932 -0.39052984
H 5.40221786 1.13219953 0.37577987
H 5.66960812 3.32739878 -0.78307974
H 5.04029846 3.64107847 0.84466970
H 3.67138863 3.60869861 -1.62334943
15
Properties=species:S:1:pos:R:3 REF_energy=-0.057601127586353496 REF_dipole="0.5761266455482634,0.12314685562670324,0.19336228220039375"
C 2.68349910 -0.76743972 1.24924958
O 2.37149906 -0.08726996 0.04031998
C 2.84125876 1.25555944 0.05519998
O 4.25827837 1.34651947 0.01832999
C 4.77960825 0.85789967 -1.21386957
C 6.22325754 1.12111950 -1.26138949
C 7.40440702 1.33468950 -1.30828953
H 2.26242900 -1.77496934 1.19251955
H 2.23933935 -0.25413990 2.10757923
H 3.76654840 -0.85262966 1.37830949
H 2.48203897 1.76704931 0.95536959
H 2.41147923 1.78228939 -0.80435973
H 4.28887844 1.36027944 -2.05511928
H 4.59753799 -0.21934992 -1.29119945
H 8.45192719 1.52495944 -1.34758949
13
Properties=species:S:1:pos:R:3 REF_energy=-0.042746246981423264 REF_dipole="-0.10766197388836463,0.07451900060167765,-0.04432802445764794"
C 1.02899969 -0.18306993 -0.41506985
O 2.28834915 0.07383997 0.21200992
C 2.90817881 1.24748957 -0.05360998
N 2.44699907 2.44086909 -0.26620990
N 1.11263955 2.65114903 -0.14275995
C 4.34398794 1.18545961 -0.05111998
C 5.54468775 1.12951958 -0.04705998
H 0.95275962 -1.26278949 -0.57414979
H 0.95026964 0.30368990 -1.39218950
H 0.21512993 0.11884996 0.24938990
H 0.90893966 3.63685846 -0.32601988
H 0.80801970 2.48171902 0.81958967
H 6.60852766 1.08463967 -0.04395999
16
Properties=species:S:1:pos:R:3 REF_energy=-0.056837285065178156 REF_dipole="0.02800780799504654,-0.017954510409272605,-0.2072029186762958"
C 2.31420922 -0.54309976 -1.42872953
C 2.28324914 0.08676997 -0.04524998
C 3.22600865 1.27596951 0.01102000
C 2.78790903 2.59159899 -0.67954975
C 3.09063888 3.22455883 0.69003975
O 3.33454871 4.31462860 1.14044964
N 3.09290886 2.00051928 1.28856945
H 1.66301930 -1.42195940 -1.46186948
H 3.32880878 -0.85801965 -1.69427943
H 1.97288930 0.16429994 -2.19135928
H 2.58779907 -0.66398978 0.69353974
H 1.25549960 0.38234988 0.19663993
H 4.27406836 1.00476968 -0.17299993
H 1.73638928 2.66693902 -0.97025961
H 3.43571877 2.93109894 -1.48999941
H 3.64244866 1.89711928 2.13109922
11
Properties=species:S:1:pos:R:3 REF_energy=-0.036453120429992714 REF_dipole="-0.6856617141531451,0.17619858469570415,-0.07739523812732507"
N 0.92385966 0.09068997 -0.10485996
C 2.26805902 0.02096999 -0.05570998
C 3.15394878 1.07528961 -0.02187999
C 4.51280832 0.64503974 0.02315999
C 4.61559820 -0.72762972 0.02357999
S 3.08116889 -1.48304951 -0.02911999
H 0.43804985 0.95708966 0.10201997
H 0.37997985 -0.74859971 0.06489997
H 2.84523892 2.11253905 -0.03423999
H 5.36747789 1.30813956 0.05076998
H 5.51504803 -1.32661951 0.05049998
12
Properties=species:S:1:pos:R:3 REF_energy=-0.04238629186498499 REF_dipole="0.08248474271022199,0.1828634444512845,-0.026823794996000405"
C 0.94434965 0.00037000 0.04027998
C 2.45466924 0.00037000 0.11187996
C 3.05047870 1.11553955 -0.67569971
N 3.78431869 0.71256971 -1.66071928
N 3.78433871 -0.71615970 -1.65882933
C 3.05050874 -1.11639953 -0.67304975
H 0.53262979 0.89059967 0.52741981
H 0.53238982 -0.88586962 0.53437984
H 0.58691978 -0.00366000 -0.99619967
H 2.82410884 0.00171000 1.13913953
H 2.87455893 2.16760921 -0.41813985
H 2.87463903 -2.16840911 -0.41288984
17
Properties=species:S:1:pos:R:3 REF_energy=-0.06545805996443033 REF_dipole="-0.08041519229187724,-0.004245585158207721,-0.039668384377211874"
C 1.01045954 -0.02576999 -0.07210997
C 2.53229904 0.01264000 0.09858996
C 2.93694901 -0.73807973 1.37422943
N 3.18555880 -0.65626979 -1.04660952
C 3.02713895 1.47826946 0.15330994
O 4.45350838 1.51491940 0.10849996
H 0.69743973 0.48701981 -0.98976964
H 0.50891984 0.46667981 0.76942974
H 0.63859975 -1.05566955 -0.12385996
H 2.50224900 -0.26363990 2.26190901
H 4.02490854 -0.75540972 1.50903952
H 2.59026885 -1.77821922 1.35358953
H 2.85305882 -0.24092992 -1.91826928
H 2.89133906 -1.63331950 -1.07972968
H 2.69807911 1.98102927 1.06888962
H 2.65656900 2.05256915 -0.70352972
H 4.69656801 0.74639970 -0.44945982
15
Properties=species:S:1:pos:R:3 REF_energy=-0.05263041709333982 REF_dipole="0.5951777515069625,0.38788350714974795,-1.217603510920159e-15"
C 0.98461962 -0.01325999 0.12517996
C 2.48685908 0.07898997 -0.07606997
O 2.78094888 0.20998992 -1.48920941
C 3.21215868 1.11050963 0.83875972
C 4.14174843 0.02417999 1.42012942
C 3.31363893 -1.02091956 0.66375977
O 3.34403872 -2.23544908 0.61005980
H 0.72609973 -0.11434996 1.18518960
H 0.57131982 -0.87894964 -0.40278986
H 0.48617983 0.88409966 -0.25624990
H 3.45457864 -0.46793985 -1.68299937
H 2.57087898 1.58731949 1.58897936
H 3.74154854 1.90202928 0.29724988
H 5.17743826 0.07517997 1.07346952
H 4.11289835 -0.08182997 2.50612903
14
Properties=species:S:1:pos:R:3 REF_energy=-0.05186858832481511 REF_dipole="0.8163021481384964,0.976713049200491,0.029205743586833588"
C 3.17591882 -1.09324956 -0.41045985
O 2.34366918 0.01759999 -0.11231995
C 3.06727886 1.24447954 -0.06346998
C 3.31356859 1.79173934 -1.44955945
C 3.08002877 3.22194862 -1.17566955
N 2.52861905 3.49922872 -0.04611998
O 2.29711914 2.26099920 0.60453975
H 2.55330896 -1.99182928 -0.43366984
H 3.93843865 -1.21986949 0.36357987
H 3.64927864 -0.97464961 -1.38960946
H 3.99842858 1.12236953 0.50426978
H 2.60171890 1.43727946 -2.20000911
H 4.33172846 1.61270940 -1.80175924
H 3.34196877 3.98539853 -1.92015922
14
Properties=species:S:1:pos:R:3 REF_energy=-0.04081547557507759 REF_dipole="0.06005402543851776,0.009367337542180006,-0.17465035825519115"
C 0.93057966 0.03177999 -0.00891000
C 2.41350913 -0.00663000 -0.00140000
C 3.26867867 1.08209968 0.00497000
N 4.56269836 0.62333977 0.01069000
C 4.55995846 -0.74571973 0.00802000
C 3.25143862 -1.14746964 0.00053000
O 2.89868903 -2.43911910 -0.00393000
H 0.55772978 1.06079960 -0.00013000
H 0.53118980 -0.48117983 0.87165970
H 0.54091984 -0.46275982 -0.90424967
H 3.06659865 2.14500928 0.00593000
H 5.39010811 1.20509958 0.01599999
H 5.48158789 -1.31031954 0.01158000
H 1.93081927 -2.51597905 -0.00924000
15
Properties=species:S:1:pos:R:3 REF_energy=-0.056640190028989235 REF_dipole="-0.2709631343978566,-0.31042777102212127,0.14602346184431902"
C 0.44102985 -0.24371991 -1.59303939
C 1.14754963 -0.32441989 -0.45758983
C 2.36019921 0.49779981 -0.15150994
N 3.48813868 -0.40132985 0.07743996
C 4.70129824 0.32677987 0.48540980
C 5.29607773 1.17328954 -0.57032979
N 5.75059748 1.83681929 -1.40802956
H -0.43335983 -0.86891967 -1.74676931
H 0.71527970 0.43898985 -2.39145923
H 0.82722968 -1.02317965 0.31288987
H 2.15400910 1.08819962 0.74871969
H 2.56964898 1.19493949 -0.97114968
H 3.67871857 -0.90902966 -0.78762972
H 5.44466829 -0.41940984 0.78917968
H 4.49351835 0.92739964 1.37860942
16
Properties=species:S:1:pos:R:3 REF_energy=-0.06151607753884858 REF_dipole="0.4956317484838959,0.10388647972304632,-0.04636698816884832"
C 1.81115937 -0.61221981 0.38519984
O 3.15536880 -0.27574989 0.05795998
N 3.29569888 1.11898959 0.13273995
C 4.54627800 1.41389954 -0.03124999
C 5.00736809 2.86010909 -0.02463999
C 5.32384777 3.30389881 -1.44089949
O 4.02712870 3.72352862 0.52798980
H 1.68890941 -1.69224942 0.27205992
H 1.11505949 -0.10489997 -0.28977990
H 1.59872937 -0.33905989 1.42284942
H 5.31586838 0.64222974 -0.21061993
H 5.90671825 2.92241883 0.59525979
H 4.42597818 3.27894878 -2.07008910
H 6.08085775 2.66114902 -1.90257919
H 5.68760777 4.33708858 -1.44779944
H 3.16504884 3.29326868 0.35918987
12
Properties=species:S:1:pos:R:3 REF_energy=-0.03428505193350517 REF_dipole="0.34352087710087803,-0.4495449914824273,0.09591331300401548"
C 2.67276883 -1.16748953 0.38315985
C 2.21372914 0.07166997 0.16329995
C 3.00835896 1.24725950 0.07171997
C 2.53112912 2.51413918 -0.15374994
O 3.56521869 3.39328885 -0.18057993
N 4.75355816 2.71113896 0.02918999
C 4.40149832 1.43045950 0.17779994
H 1.98432922 -2.00608921 0.43697983
H 3.72669864 -1.38910949 0.51463979
H 1.13733959 0.19114994 0.04448998
H 1.55292952 2.94429874 -0.30770990
H 5.17702818 0.69931978 0.35541987
16
Properties=species:S:1:pos:R:3 REF_energy=-0.05699844637953699 REF_dipole="-0.35815670768047303,-0.47973307560016387,0.19068687876909363"
O 0.73861974 0.01271000 -0.02388999
C 2.15082932 0.03347998 0.21126992
C 2.99708867 -0.83845967 -0.67331976
C 2.51488900 -1.42899954 -1.95753920
N 2.78814888 -0.36447987 -2.94355893
C 2.56591892 0.91655970 -2.24838924
C 3.02282882 0.64056981 -0.85337967
H 0.32378986 0.85124969 0.24063991
H 2.47748899 0.14283995 1.24173951
H 3.86615849 -1.33026946 -0.26114991
H 3.06167889 -2.33982921 -2.21935916
H 1.44570947 -1.66244936 -1.93093920
H 3.77822876 -0.41747984 -3.18028879
H 3.15046883 1.71251941 -2.71952891
H 1.50795937 1.19569957 -2.28654909
H 3.91447854 1.18054962 -0.56849980
16
Properties=species:S:1:pos:R:3 REF_energy=-0.061262509890151806 REF_dipole="0.41366793992990547,0.33842727004898676,0.5530357542100677"
C 1.04134965 -0.31299990 -0.11766995
C 2.51325893 -0.05209998 -0.10840996
C 3.13901877 1.13798952 0.00000000
C 2.42793894 2.47149920 0.06554998
N 2.29771924 2.94829893 1.43959939
C 4.54501867 1.13798952 0.00000000
C 5.73517752 1.13798952 0.00000000
H 0.80248970 -1.08198965 0.62486976
H 0.73505968 -0.68375975 -1.10096967
H 0.44019982 0.56691980 0.12279996
H 3.12178898 -0.95407963 -0.17920993
H 1.43695939 2.42113924 -0.39705986
H 2.98658872 3.21479869 -0.51646978
H 1.75961936 2.26799893 1.97308934
H 1.75828946 3.81087852 1.44245946
H 6.79990768 1.14158952 0.00658000
15
Properties=species:S:1:pos:R:3 REF_energy=-0.05200993745875837 REF_dipole="-0.772204955244189,-0.09532987837598728,5.003649142534942e-16"
O 0.76341969 0.94336963 0.84404969
C 2.16631913 0.97872961 1.06211960
C 2.92828894 1.42095947 -0.17784993
O 2.37227917 1.60598946 -1.25798953
C 4.40051842 1.58816946 -0.01226000
C 5.33319807 1.22977960 -1.14490962
C 5.13280773 2.67014909 -0.76930970
H 0.63639975 0.96816963 -0.12657996
H 2.49795914 -0.02489999 1.34258950
H 2.36783910 1.67602944 1.87986934
H 4.76707792 1.37970948 0.98921961
H 4.90480804 0.89136964 -2.08293915
H 6.28101778 0.76580971 -0.89849967
H 5.94609785 3.18276882 -0.26883990
H 4.56996822 3.29553890 -1.45469940
19
Properties=species:S:1:pos:R:3 REF_energy=-0.07523478828619257 REF_dipole="0.1872618304862994,0.16233200845352908,-0.12013890727590437"
C 1.09454954 0.02433999 0.02223999
N 2.55385900 0.01317000 -0.00207000
C 3.09717870 1.02272964 0.94298965
C 4.14256859 -0.02742999 1.36334944
C 3.08446884 -1.06058955 0.89826965
C 3.59331846 -2.27341914 0.11869995
N 4.32145834 -3.19311881 0.99790967
H 0.70656973 -0.83976966 -0.52745980
H 0.72199970 0.92323965 -0.48053980
H 0.66823971 0.00138000 1.03220963
H 2.42988896 1.32707953 1.75976932
H 3.50448871 1.92017937 0.46823984
H 5.06138802 -0.00324000 0.76541972
H 4.40237808 -0.04713998 2.42444897
H 2.40338922 -1.35369945 1.71189928
H 4.25092840 -1.97068930 -0.70472974
H 2.74527907 -2.81251907 -0.31853989
H 5.18336821 -2.74351907 1.30772948
H 4.61508846 -4.00325823 0.45137984
19
Properties=species:S:1:pos:R:3 REF_energy=-0.07240153244387981 REF_dipole="-0.28131290432188316,0.4247030234798239,0.15505923945154287"
N 1.02423954 -0.05468998 0.07311997
C 2.47714901 -0.13378994 0.23090991
C 3.12610888 1.25750947 0.35587987
C 2.59714913 2.07776928 1.55251944
N 2.87301898 1.46293950 2.85562897
C 4.65803814 1.12661958 0.41033983
O 5.08967781 0.36068988 1.52822936
H 0.65175974 -1.00041962 -0.01897999
H 0.80212975 0.41640985 -0.80371964
H 2.89130902 -0.65450978 -0.64004982
H 2.70060897 -0.75187975 1.10658956
H 2.88653898 1.82641935 -0.55329984
H 1.51864934 2.24576926 1.45551956
H 3.06855893 3.06736875 1.53842938
H 2.28335929 0.62806982 2.93466878
H 2.52327895 2.08789921 3.58470869
H 5.12920809 2.11330938 0.47044981
H 5.03320837 0.63683975 -0.49406981
H 4.57351828 0.69704974 2.29595923
13
Properties=species:S:1:pos:R:3 REF_energy=-0.04544213203437186 REF_dipole="-0.0074737627062329,0.15062362749853198,0.06270410304659224"
C 1.01301956 -0.30008987 0.13875994
C 2.48395896 -0.03052999 0.13476995
C 3.13901877 1.13798952 0.00000000
C 2.41981912 2.43990898 -0.13675995
O 2.98850870 3.51139879 -0.31482986
C 4.54501867 1.13798952 0.00000000
C 5.73517752 1.13798952 0.00000000
H 0.79521972 -1.13370955 -0.53801978
H 0.40558985 0.54481977 -0.19109993
H 0.69024974 -0.58844978 1.14423966
H 3.08436894 -0.93443960 0.24875991
H 1.32408953 2.40170908 -0.06082998
H 6.80020761 1.15234959 -0.00223000
12
Properties=species:S:1:pos:R:3 REF_energy=-0.03676219288206739 REF_dipole="0.5481585455093051,0.012219080281666628,0.1821711195590744"
C 0.64813977 0.33145988 -0.02483999
C 1.97113931 0.18338993 -0.16736993
N 2.49634910 -1.06100953 -0.39611986
C 3.81051850 -1.39504945 -0.56462979
O 4.17683840 -2.54726887 -0.76543969
C 2.81793880 1.32525957 -0.07898997
C 3.52759862 2.29135919 -0.00366000
H 0.20719992 1.30754960 0.15729994
H -0.03652998 -0.50770980 -0.08405996
H 1.86690927 -1.85196924 -0.45356983
H 4.52032852 -0.55612975 -0.50737983
H 4.15525866 3.14919877 0.06344998
13
Properties=species:S:1:pos:R:3 REF_energy=-0.0396457539095465 REF_dipole="-0.030567984230392208,-0.034726914266493825,-0.29270623324917855"
C 1.01429963 0.01990999 0.04301998
N 2.42762899 0.00625000 -0.29023990
N 3.19772863 1.10219955 0.10230996
C 4.52611828 0.70034969 0.13923995
O 5.51834774 1.39864945 0.20147993
C 4.52257824 -0.77719975 0.04725998
C 3.24220872 -1.09215963 -0.19421992
H 0.60508978 1.03291965 -0.02694999
H 0.84944963 -0.34952986 1.06346965
H 0.45947984 -0.61614978 -0.65414977
H 2.97317886 2.03743911 -0.21802992
H 5.38732815 -1.40435946 0.16119993
H 2.82636905 -2.08584929 -0.29088989
12
Properties=species:S:1:pos:R:3 REF_energy=-0.033175367329724814 REF_dipole="0.19356076783427678,0.9122906219912048,0.056478008767265137"
C 3.28548884 -1.03200960 0.52407980
O 2.42093897 0.06587997 0.26008990
C 3.00755882 1.25402951 0.13638996