24
Properties=species:S:1:pos:R:3 REF_energy=-0.09899774209652978
O -4.32450000 0.30410000 -0.02120000
C 0.59160000 0.42670000 0.03980000
C -0.64730000 -0.47100000 0.01290000
C 1.90890000 -0.35410000 0.04960000
C -1.93050000 0.35810000 -0.01970000
C 3.14730000 0.54210000 0.00210000
C -3.17040000 -0.52470000 -0.00460000
C 4.42500000 -0.28120000 -0.05890000
H 0.55340000 1.07460000 0.92430000
H 0.57490000 1.08660000 -0.83660000
H -0.64680000 -1.11860000 0.89790000
H -0.60920000 -1.12460000 -0.86690000
H 1.94820000 -0.98280000 0.94770000
H 1.92450000 -1.03320000 -0.81220000
H -1.94510000 0.99630000 -0.91200000
H -1.96290000 1.04160000 0.83810000
H 3.09940000 1.19580000 -0.87640000
H 3.17140000 1.18800000 0.88720000
H -3.20540000 -1.13790000 0.90100000
H -3.20290000 -1.18820000 -0.87450000
H 4.51700000 -0.92780000 0.81960000
H 5.29860000 0.37740000 -0.08910000
H 4.44370000 -0.91160000 -0.95370000
H -4.30110000 0.82380000 -0.84280000
27
Properties=species:S:1:pos:R:3 REF_energy=-0.11141496587822641
O 4.94420000 -0.39760000 -0.04630000
C 0.02730000 -0.35980000 0.07380000
C -1.26460000 0.46240000 0.05830000
C 1.29420000 0.49580000 0.00440000
C -2.53190000 -0.39500000 0.05320000
C 2.55000000 -0.37470000 -0.00050000
C -3.78740000 0.47410000 -0.03560000
C 3.81750000 0.46790000 -0.02780000
C -5.04920000 -0.37300000 -0.07960000
H 0.05030000 -0.97250000 0.98350000
H 0.01760000 -1.05470000 -0.77530000
H -1.27840000 1.12760000 0.93060000
H -1.26320000 1.10630000 -0.83010000
H 1.31980000 1.17830000 0.86230000
H 1.27140000 1.11410000 -0.90100000
H -2.56560000 -1.00620000 0.96290000
H -2.50250000 -1.08450000 -0.79920000
H 2.53790000 -1.04810000 -0.86660000
H 2.56650000 -1.02400000 0.88380000
H -3.83470000 1.14830000 0.82740000
H -3.74540000 1.09980000 -0.93470000
H 3.85530000 1.10970000 -0.91370000
H 3.88800000 1.10050000 0.86220000
H -5.13860000 -0.99020000 0.82010000
H -5.04750000 -1.03460000 -0.95170000
H -5.93420000 0.26800000 -0.14110000
H 4.89010000 -0.93320000 -0.85610000
30
Properties=species:S:1:pos:R:3 REF_energy=-0.12383994518965169
O 5.61080000 0.31850000 -0.05000000
C -0.60740000 -0.41950000 0.06140000
C 0.67360000 0.41720000 0.04430000
C -1.88650000 0.42300000 0.05410000
C 1.91760000 -0.47440000 0.02000000
C -3.20270000 -0.36050000 0.04830000
C 3.19960000 0.36210000 -0.02670000
C -4.44230000 0.53200000 -0.01570000
C 4.45320000 -0.50420000 -0.02500000
C -5.71590000 -0.29410000 -0.11080000
H -0.60990000 -1.06300000 0.94970000
H -0.61740000 -1.08470000 -0.81090000
H 0.69980000 1.06610000 0.92780000
H 0.67160000 1.06970000 -0.83710000
H -1.87680000 1.08510000 0.92930000
H -1.86600000 1.07710000 -0.82700000
H 1.92860000 -1.11400000 0.91080000
H 1.88200000 -1.13590000 -0.85400000
H -3.25040000 -0.98840000 0.94650000
H -3.20230000 -1.04060000 -0.81260000
H 3.20260000 1.00080000 -0.91870000
H 3.23130000 1.04620000 0.83060000
H -4.48630000 1.16980000 0.87450000
H -4.37920000 1.19400000 -0.88700000
H 4.49770000 -1.13760000 0.86680000
H 4.47860000 -1.15190000 -0.90670000
H -6.59080000 0.36230000 -0.15200000
H -5.71480000 -0.91530000 -1.01210000
H -5.82370000 -0.94990000 0.75900000
H 5.59010000 0.87810000 0.74500000
33
Properties=species:S:1:pos:R:3 REF_energy=-0.13633834265877365
O -6.22540000 0.38490000 -0.07870000
C -0.02070000 -0.45540000 0.06000000
C 1.27070000 0.36540000 0.11810000
C -1.28760000 0.40290000 0.05590000
C 2.53840000 -0.48890000 0.04750000
C -2.54640000 -0.46790000 0.02800000
C 3.79480000 0.38520000 0.03580000
C -3.81480000 0.38980000 -0.00640000
C 5.06170000 -0.46330000 -0.07330000
C -5.08080000 -0.45600000 -0.06790000
C 6.31000000 0.40330000 -0.11900000
H -0.04640000 -1.13920000 0.91760000
H -0.00820000 -1.07990000 -0.84200000
H 1.28090000 0.95620000 1.04240000
H 1.27270000 1.08040000 -0.71410000
H -1.27630000 1.06600000 -0.81740000
H -1.30120000 1.04120000 0.94750000
H 2.56880000 -1.17280000 0.90400000
H 2.51240000 -1.10560000 -0.85900000
H -2.56640000 -1.11770000 0.91120000
H -2.52270000 -1.11960000 -0.85390000
H 3.83240000 0.98850000 0.95090000
H 3.74840000 1.08270000 -0.80950000
H -3.85510000 1.03830000 0.87770000
H -3.79160000 1.06500000 -0.87100000
H 5.02060000 -1.08010000 -0.97870000
H 5.12700000 -1.14600000 0.78190000
H -5.14600000 -1.11620000 0.80280000
H -5.09220000 -1.06810000 -0.97560000
H 6.39820000 1.01190000 0.78660000
H 6.29060000 1.07420000 -0.98370000
H 7.20390000 -0.22360000 -0.19540000
H -7.00510000 -0.19470000 -0.11810000
36
Properties=species:S:1:pos:R:3 REF_energy=-0.1487009627688598
O -6.90730000 0.33350000 0.09870000
C 0.63540000 0.42860000 -0.05590000
C -0.64430000 -0.41400000 -0.04670000
C 1.91320000 -0.41280000 -0.09580000
C -1.95820000 0.37330000 -0.08710000
C 3.19370000 0.42620000 -0.02570000
C -3.23870000 -0.46430000 -0.02170000
C 4.50540000 -0.36320000 0.02800000
C -4.51360000 0.37550000 0.02120000
C 5.75010000 0.52440000 0.03970000
C -5.75860000 -0.50110000 0.04430000
C 7.02290000 -0.30610000 0.10080000
H 0.61960000 1.09820000 -0.92440000
H 0.64600000 1.06690000 0.83600000
H -0.64100000 -1.04600000 0.85040000
H -0.62470000 -1.09700000 -0.90540000
H 1.90520000 -1.11660000 0.74550000
H 1.92610000 -1.01490000 -1.01230000
H -1.97750000 0.97890000 -1.00200000
H -1.96070000 1.08140000 0.75140000
H 3.14320000 1.07330000 0.85930000
H 3.21900000 1.09500000 -0.89540000
H -3.20020000 -1.10520000 0.86780000
H -3.26890000 -1.13230000 -0.89130000
H 4.54970000 -1.03630000 -0.83720000
H 4.50130000 -0.99840000 0.92240000
H -4.55590000 1.04510000 -0.84680000
H -4.50460000 1.02760000 0.90340000
H 5.76880000 1.14960000 -0.86040000
H 5.71660000 1.19880000 0.90310000
H -5.82490000 -1.11370000 -0.86000000
H -5.76770000 -1.16490000 0.91460000
H 7.90120000 0.34690000 0.10820000
H 7.10030000 -0.96980000 -0.76630000
H 7.04810000 -0.91960000 1.00710000
H -6.85570000 0.85120000 0.92020000
39
Properties=species:S:1:pos:R:3 REF_energy=-0.16122293314239977
O -7.52850000 0.38350000 -0.03910000
C -0.03260000 0.42870000 0.00540000
C 1.26480000 -0.38690000 0.01720000
C -1.29360000 -0.43820000 0.03540000
C 2.56520000 0.42270000 0.07810000
C -2.59030000 0.37750000 0.01090000
C 3.82520000 -0.44510000 0.02710000
C -3.85210000 -0.48910000 0.01620000
C 5.12270000 0.36940000 -0.00090000
C -5.11670000 0.37480000 -0.03730000
C 6.38300000 -0.49320000 -0.07880000
C -6.38880000 -0.46360000 -0.00680000
C 7.64180000 0.35960000 -0.02750000
H -0.04700000 1.06380000 -0.88870000
H -0.03930000 1.10130000 0.87180000
H 1.28470000 -1.01980000 -0.87920000
H 1.24320000 -1.06990000 0.87600000
H -1.28030000 -1.06480000 0.93570000
H -1.28140000 -1.11900000 -0.82460000
H 2.57380000 1.02290000 0.99590000
H 2.58040000 1.12830000 -0.76160000
H -2.60780000 1.04900000 0.87820000
H -2.59390000 1.01410000 -0.88270000
H 3.78690000 -1.08230000 -0.86510000
H 3.83640000 -1.11600000 0.89490000
H -3.86630000 -1.10910000 0.92050000
H -3.83560000 -1.16900000 -0.84400000
H 5.10070000 1.05240000 -0.85930000
H 5.16630000 0.99510000 0.89930000
H -5.12900000 1.07760000 0.80520000
H -5.11370000 0.99420000 -0.94300000
H 6.37590000 -1.07760000 -1.00590000
H 6.39730000 -1.20520000 0.75450000
H -6.43020000 -1.13310000 -0.87200000
H -6.43220000 -1.06550000 0.90670000
H 7.69250000 0.92910000 0.90600000
H 8.53160000 -0.27500000 -0.08690000
H 7.67140000 1.06570000 -0.86350000
H -8.31240000 -0.19160000 -0.01820000
42
Properties=species:S:1:pos:R:3 REF_energy=-0.173583724694923
O -8.12410000 0.34850000 0.12230000
C 0.62100000 -0.39320000 -0.06880000
C -0.68290000 0.40980000 -0.06820000
C 1.87600000 0.48380000 -0.05780000
C -1.93750000 -0.46650000 -0.05420000
C 3.14600000 -0.37110000 -0.04690000
C -3.20810000 0.38630000 -0.02260000
C 4.43530000 0.45480000 -0.00520000
C -4.46440000 -0.48590000 -0.04240000
C 5.73970000 -0.34850000 0.02870000
C -5.73150000 0.36370000 0.02260000
C 7.02720000 0.47870000 0.01410000
C -6.98560000 -0.49860000 0.04670000
C 8.28900000 -0.36170000 0.13190000
H 0.64040000 -1.04260000 -0.95290000
H 0.63380000 -1.05230000 0.80820000
H -0.70390000 1.05900000 -0.95230000
H -0.69410000 1.06920000 0.80860000
H 1.86200000 1.13270000 0.82600000
H 1.87820000 1.13580000 -0.93920000
H -1.94380000 -1.10840000 -0.94340000
H -1.91490000 -1.12610000 0.82150000
H 3.16120000 -1.01140000 -0.93740000
H 3.12610000 -1.03920000 0.82300000
H -3.21930000 1.06330000 -0.88550000
H -3.20690000 1.01100000 0.87890000
H 4.45550000 1.11560000 -0.88110000
H 4.40740000 1.10990000 0.87470000
H -4.44270000 -1.17720000 0.80890000
H -4.47600000 -1.09580000 -0.95390000
H 5.75300000 -1.03300000 -0.82890000
H 5.73360000 -0.97940000 0.92660000
H -5.71510000 1.00230000 0.91470000
H -5.77510000 1.04750000 -0.83430000
H 7.07100000 1.06320000 -0.91240000
H 7.00370000 1.19720000 0.84210000
H -7.06090000 -1.10380000 -0.86240000
H -6.98750000 -1.16170000 0.91760000
H 8.29530000 -0.92770000 1.06870000
H 9.17600000 0.27910000 0.11450000
H 8.36400000 -1.07100000 -0.69840000
H -8.90740000 -0.22740000 0.13590000