26
Properties=species:S:1:pos:R:3 REF_energy=-0.11036148259339251
C -0.60840000 -0.42860000 0.03870000
C 0.63200000 0.46770000 0.02880000
C -1.92510000 0.35340000 0.03070000
C 1.91620000 -0.36460000 0.01340000
C -3.16350000 -0.54160000 -0.03360000
C 3.15660000 0.52750000 -0.03510000
C -4.44290000 0.28100000 -0.02640000
C 4.43520000 -0.29480000 -0.01660000
H -0.58220000 -1.07680000 0.92330000
H -0.58140000 -1.08830000 -0.83770000
H 0.62210000 1.11780000 0.91190000
H 0.60440000 1.11880000 -0.85330000
H -1.93070000 1.03540000 -0.82870000
H -1.97370000 0.97900000 0.93060000
H 1.91260000 -1.03310000 -0.85620000
H 1.95220000 -0.99840000 0.90790000
H -3.16980000 -1.22750000 0.82140000
H -3.13200000 -1.15420000 -0.94190000
H 3.15750000 1.21090000 0.82210000
H 3.13690000 1.14370000 -0.94150000
H -4.51830000 0.88150000 0.88580000
H -4.48000000 0.95640000 -0.88710000
H -5.31630000 -0.37700000 -0.07290000
H 5.30930000 0.36280000 -0.05300000
H 4.48070000 -0.96840000 -0.87840000
H 4.50110000 -0.89740000 0.89480000
29
Properties=species:S:1:pos:R:3 REF_energy=-0.12277968336017464
C 0.00540000 0.37340000 -0.03880000
C -1.25420000 -0.49590000 -0.02700000
C 1.27250000 -0.48280000 -0.00380000
C -2.52040000 0.36360000 -0.02890000
C 2.53100000 0.38610000 0.01820000
C -3.81120000 -0.45720000 0.01430000
C 3.79720000 -0.47000000 0.01920000
C -5.07150000 0.39350000 0.03970000
C 5.05130000 0.38940000 0.00700000
H 0.01020000 1.00270000 -0.93710000
H -0.00540000 1.04610000 0.82750000
H -1.25710000 -1.15590000 -0.90270000
H -1.25060000 -1.13750000 0.86240000
H 1.25780000 -1.12750000 0.88340000
H 1.29340000 -1.14060000 -0.88120000
H -2.52760000 0.99660000 -0.92490000
H -2.49940000 1.03920000 0.83530000
H 2.52010000 1.02910000 0.90680000
H 2.53570000 1.04600000 -0.85800000
H -3.80250000 -1.10070000 0.90220000
H -3.84840000 -1.12050000 -0.85810000
H 3.80990000 -1.11450000 0.90580000
H 3.80430000 -1.12600000 -0.85900000
H -5.13370000 1.02480000 -0.85220000
H -5.96050000 -0.24410000 0.06940000
H -5.08680000 1.04190000 0.92130000
H 5.94430000 -0.24330000 0.00920000
H 5.09140000 1.03700000 0.88860000
H 5.08520000 1.02150000 -0.88600000
32
Properties=species:S:1:pos:R:3 REF_energy=-0.1352089999600823
C 0.66090000 0.38790000 0.06610000
C -0.64290000 -0.41610000 0.09720000
C 1.91410000 -0.48940000 0.02400000
C -1.89620000 0.46250000 0.06350000
C 3.18580000 0.36180000 0.00710000
C -3.19920000 -0.34300000 0.03420000
C 4.43810000 -0.51100000 -0.07350000
C -4.44980000 0.53050000 -0.07480000
C 5.70500000 0.32950000 -0.05680000
C -5.71580000 -0.31290000 -0.08700000
H 0.65450000 1.04610000 -0.81160000
H 0.70030000 1.03790000 0.94900000
H -0.66180000 -1.04070000 0.99860000
H -0.66160000 -1.09850000 -0.76160000
H 1.92620000 -1.15400000 0.89640000
H 1.88370000 -1.12630000 -0.86820000
H -1.89900000 1.12430000 0.93830000
H -1.85640000 1.10840000 -0.82240000
H 3.16090000 1.04550000 -0.85030000
H 3.22470000 0.98000000 0.91230000
H -3.17210000 -1.03740000 -0.81490000
H -3.26020000 -0.95590000 0.94210000
H 4.46020000 -1.20940000 0.77110000
H 4.41540000 -1.11110000 -0.99050000
H -4.48870000 1.22890000 0.76910000
H -4.40520000 1.12990000 -0.99130000
H 6.58790000 -0.31450000 -0.11620000
H 5.77420000 0.91670000 0.86450000
H 5.72940000 1.01900000 -0.90670000
H -6.59820000 0.32990000 -0.16550000
H -5.72020000 -1.00150000 -0.93790000
H -5.80440000 -0.90080000 0.83200000
35
Properties=species:S:1:pos:R:3 REF_energy=-0.14762067850822636
C -0.00540000 -0.43190000 -0.00940000
C -1.26970000 0.43180000 -0.01200000
C 1.29020000 0.38430000 -0.03710000
C -2.53080000 -0.43650000 0.00390000
C 2.55340000 -0.47940000 -0.06020000
C -3.82960000 0.37440000 -0.02830000
C 3.81600000 0.38420000 -0.01370000
C -5.08860000 -0.48840000 0.06140000
C 5.07850000 -0.47740000 0.00190000
C -6.34830000 0.36300000 0.01180000
C 6.33420000 0.37590000 0.08170000
H -0.00600000 -1.07200000 0.88160000
H -0.02330000 -1.10040000 -0.87920000
H -1.26630000 1.09330000 0.86240000
H -1.27560000 1.07120000 -0.90280000
H 1.28490000 1.03810000 -0.91810000
H 1.31420000 1.03930000 0.84270000
H -2.51550000 -1.11760000 -0.85610000
H -2.52270000 -1.06370000 0.90420000
H 2.55920000 -1.09830000 -0.96540000
H 2.54350000 -1.16160000 0.79850000
H -3.82480000 1.08960000 0.80380000
H -3.85790000 0.96550000 -0.95220000
H 3.83670000 1.05360000 -0.88210000
H 3.79450000 1.01720000 0.88180000
H -5.10520000 -1.20710000 -0.76590000
H -5.07790000 -1.06520000 0.99330000
H 5.11860000 -1.09510000 -0.90280000
H 5.05390000 -1.15940000 0.85980000
H -7.23730000 -0.27210000 0.07750000
H -6.37530000 1.07260000 0.84490000
H -6.40320000 0.92860000 -0.92380000
H 6.40600000 1.04950000 -0.77820000
H 6.34030000 0.98100000 0.99400000
H 7.22480000 -0.26020000 0.09020000
38
Properties=species:S:1:pos:R:3 REF_energy=-0.16005803446415956
C 0.63690000 0.48950000 0.11050000
C -0.61730000 -0.38890000 0.12770000
C 1.90740000 -0.36360000 0.06410000
C -1.92220000 0.41390000 0.10260000
C 3.19550000 0.46370000 0.01850000
C -3.17360000 -0.46630000 0.04670000
C 4.46630000 -0.38850000 -0.00200000
C -4.47840000 0.33670000 0.03400000
C 5.71610000 0.48490000 -0.12060000
C -5.72670000 -0.53650000 -0.09640000
C 6.98470000 -0.35340000 -0.10890000
C -6.98880000 0.30870000 -0.17610000
H 0.65150000 1.12860000 1.00120000
H 0.60970000 1.15120000 -0.76350000
H -0.60340000 -1.02610000 1.02060000
H -0.59790000 -1.05980000 -0.74030000
H 1.87350000 -1.01740000 -0.81640000
H 1.93380000 -1.01870000 0.94370000
H -1.91650000 1.08240000 -0.76720000
H -1.96750000 1.05280000 0.99300000
H 3.22390000 1.13250000 0.88760000
H 3.17370000 1.10370000 -0.87240000
H -3.17830000 -1.14540000 0.90810000
H -3.12880000 -1.09420000 -0.85170000
H 4.42600000 -1.08760000 -0.84600000
H 4.51740000 -0.98950000 0.91390000
H -4.54410000 0.93180000 0.95320000
H -4.44880000 1.04760000 -0.80130000
H 5.67740000 1.06700000 -1.04860000
H 5.75120000 1.19960000 0.70990000
H -5.79560000 -1.21490000 0.76170000
H -5.65340000 -1.15750000 -0.99670000
H 7.07020000 -0.92260000 0.82230000
H 6.99610000 -1.05910000 -0.94570000
H 7.86540000 0.29070000 -0.19550000
H -6.96270000 0.97260000 -1.04610000
H -7.87000000 -0.33430000 -0.26610000
H -7.10660000 0.92310000 0.72220000
41
Properties=species:S:1:pos:R:3 REF_energy=-0.17247772496672376
C 0.00160000 -0.35330000 0.02900000
C 1.26270000 0.51510000 0.02870000
C -1.29680000 0.45870000 0.02630000
C 2.52650000 -0.34910000 0.01850000
C -2.55700000 -0.40920000 0.00170000
C 3.82220000 0.46840000 -0.00440000
C -3.82210000 0.45190000 -0.01230000
C 5.08450000 -0.39800000 0.01170000
C -5.08400000 -0.41260000 0.00130000
C 6.37800000 0.42100000 0.00100000
C -6.34700000 0.44670000 -0.04650000
C 7.63550000 -0.43250000 -0.05560000
C -7.60400000 -0.40720000 0.00070000
H 0.01220000 -1.00750000 0.90960000
H 0.01410000 -1.00780000 -0.85150000
H 1.26530000 1.16170000 0.91420000
H 1.25800000 1.16930000 -0.85130000
H -1.31710000 1.10270000 0.91440000
H -1.29990000 1.12340000 -0.84660000
H 2.50710000 -1.01000000 -0.85700000
H 2.52750000 -0.99670000 0.90410000
H -2.54070000 -1.05550000 -0.88410000
H -2.56510000 -1.06450000 0.88100000
H 3.83090000 1.10330000 -0.89890000
H 3.83740000 1.14100000 0.86210000
H -3.82500000 1.11710000 0.85980000
H -3.82130000 1.08900000 -0.90520000
H 5.07310000 -1.04010000 0.90090000
H 5.07220000 -1.06370000 -0.86010000
H -5.07260000 -1.09500000 -0.85730000
H -5.09350000 -1.03230000 0.90630000
H 6.37300000 1.09600000 -0.86320000
H 6.41550000 1.05200000 0.89680000
H -6.35560000 1.14390000 0.79940000
H -6.35380000 1.04830000 -0.96300000
H 7.69410000 -1.09800000 0.81150000
H 8.52670000 0.20260000 -0.05950000
H 7.65010000 -1.04650000 -0.96150000
H -7.64240000 -1.09600000 -0.84940000
H -7.64390000 -0.99620000 0.92250000
H -8.49500000 0.22730000 -0.03570000
44
Properties=species:S:1:pos:R:3 REF_energy=-0.18488139101602563
C 0.64980000 -0.41940000 -0.05760000
C -0.62460000 0.42640000 -0.00490000
C 1.90060000 0.46390000 -0.07430000
C -1.90940000 -0.40710000 0.00140000
C 3.17560000 -0.38240000 -0.08820000
C -3.18450000 0.44000000 0.02940000
C 4.46010000 0.45150000 -0.08240000
C -4.43450000 -0.44440000 0.02270000
C 5.73420000 -0.39410000 -0.02170000
C -5.74330000 0.35080000 0.01960000
C 6.98070000 0.48870000 0.05500000
C -6.99160000 -0.53160000 -0.01240000
C 8.24840000 -0.34470000 0.15440000
C -8.26170000 0.30250000 0.05900000
H 0.63380000 -1.05280000 -0.95270000
H 0.67950000 -1.08720000 0.81170000
H -0.60400000 1.05760000 0.89220000
H -0.64330000 1.10370000 -0.86780000
H 1.88280000 1.11510000 -0.95640000
H 1.90420000 1.11410000 0.80880000
H -1.89830000 -1.07430000 0.87230000
H -1.92190000 -1.04880000 -0.88850000
H 3.17340000 -1.03010000 -0.97360000
H 3.17650000 -1.04370000 0.78730000
H -3.18670000 1.07410000 0.92370000
H -3.20120000 1.10640000 -0.84120000
H 4.48400000 1.08220000 -0.97960000
H 4.43780000 1.12930000 0.78020000
H -4.41710000 -1.10270000 0.90020000
H -4.41190000 -1.09440000 -0.86100000
H 5.78900000 -1.03990000 -0.90620000
H 5.69520000 -1.05020000 0.85630000
H -5.75440000 1.02240000 -0.84790000
H -5.77210000 0.98800000 0.91250000
H 6.91750000 1.14870000 0.92810000
H 7.03810000 1.12920000 -0.83280000
H -6.99950000 -1.12990000 -0.93060000
H -6.97340000 -1.23100000 0.83140000
H 8.35900000 -0.99580000 -0.71860000
H 8.23660000 -0.97170000 1.05160000
H 9.12690000 0.30610000 0.20640000
H -8.29720000 0.88540000 0.98480000
H -8.32390000 0.99520000 -0.78640000
H -9.14270000 -0.34630000 0.03240000