18
Properties=species:S:1:pos:R:3 REF_energy=-0.07426514175952226 Folder_name=data_0
H 0.69281000 -0.61190000 -2.32119000
C 0.61599000 -0.54424000 -1.22365000
C 0.75926000 1.01220000 0.75632000
C -0.91087000 -0.87824000 0.75619000
C -0.61599000 0.54420000 1.22364000
C -0.75932000 -1.01213000 -0.75638000
C 0.91090000 0.87820000 -0.75622000
H 1.53617000 0.40201000 1.25258000
H -0.20949000 -1.57404000 1.25230000
H -1.38643000 1.22487000 0.81702000
H -1.53616000 -0.40178000 -1.25255000
H 0.20961000 1.57401000 -1.25246000
H 1.38634000 -1.22495000 -0.81692000
H 0.93800000 2.05374000 1.06982000
H -1.92242000 -1.18400000 1.06982000
H -0.69268000 0.61181000 2.32119000
H -0.93821000 -2.05362000 -1.06999000
H 1.92250000 1.18387000 -1.06973000
18
Properties=species:S:1:pos:R:3 REF_energy=-0.07442599503388347 Folder_name=data_1
H 0.71390000 -0.63602000 -2.31260000
C 0.62619000 -0.55245000 -1.21707000
C 0.76444000 1.03276000 0.74237000
C -0.94240000 -0.86268000 0.74313000
C -0.58639000 0.53377000 1.24758000
C -0.74955000 -1.02964000 -0.76140000
C 0.89964000 0.88097000 -0.76998000
H 1.57303000 0.46410000 1.23640000
H -0.31251000 -1.60171000 1.26601000
H -1.36887000 1.24040000 0.92409000
H -1.52742000 -0.45452000 -1.29581000
H 0.18266000 1.55781000 -1.27053000
H 1.40199000 -1.21666000 -0.79306000
H 0.90493000 2.08797000 1.03478000
H -1.98689000 -1.09585000 1.01193000
H -0.59706000 0.53947000 2.35102000
H -0.89893000 -2.08705000 -1.04114000
H 1.90325000 1.19935000 -1.09591000
18
Properties=species:S:1:pos:R:3 REF_energy=-0.0746183638686082 Folder_name=data_2
H 0.73517000 -0.65948000 -2.30232000
C 0.63586000 -0.56068000 -1.20908000
C 0.76991000 1.05402000 0.72794000
C -0.97846000 -0.84652000 0.72846000
C -0.55380000 0.52243000 1.27521000
C -0.73946000 -1.04782000 -0.76705000
C 0.88719000 0.88334000 -0.78274000
H 1.60989000 0.53207000 1.21683000
H -0.43517000 -1.63138000 1.27370000
H -1.34043000 1.25591000 1.04823000
H -1.51478000 -0.51282000 -1.34149000
H 0.15453000 1.54057000 -1.28652000
H 1.41620000 -1.20784000 -0.76759000
H 0.87178000 2.12099000 0.99870000
H -2.05005000 -1.00029000 0.94536000
H -0.49197000 0.46286000 2.37609000
H -0.85889000 -2.11915000 -1.01213000
H 1.88247000 1.21381000 -1.12174000
18
Properties=species:S:1:pos:R:3 REF_energy=-0.07481734935187978 Folder_name=data_3
H 0.75425000 -0.67967000 -2.29201000
C 0.64401000 -0.56779000 -1.20091000
C 0.77372000 1.07388000 0.71521000
C -1.01443000 -0.82873000 0.71402000
C -0.52185000 0.50876000 1.30231000
C -0.73031000 -1.06527000 -0.77125000
C 0.87526000 0.88495000 -0.79335000
H 1.64262000 0.59771000 1.19655000
H -0.56365000 -1.65406000 1.27767000
H -1.30591000 1.26439000 1.17498000
H -1.50024000 -0.56964000 -1.38392000
H 0.12900000 1.52450000 -1.29921000
H 1.42767000 -1.19953000 -0.74405000
H 0.84236000 2.14981000 0.96505000
H -2.10400000 -0.90596000 0.87771000
H -0.38939000 0.38772000 2.39233000
H -0.82208000 -2.14685000 -0.98677000
H 1.86297000 1.22582000 -1.14449000
18
Properties=species:S:1:pos:R:3 REF_energy=-0.07501032107927463 Folder_name=data_4
H 0.77220000 -0.69830000 -2.28117000
C 0.65140000 -0.57428000 -1.19238000
C 0.77540000 1.09365000 0.70295000
C -1.05168000 -0.80613000 0.69801000
C -0.48758000 0.49028000 1.32914000
C -0.72092000 -1.08311000 -0.77357000
C 0.86336000 0.88598000 -0.80290000
H 1.67275000 0.66534000 1.17478000
H -0.70755000 -1.66571000 1.28013000
H -1.26335000 1.26100000 1.31333000
H -1.48341000 -0.62887000 -1.42476000
H 0.10434000 1.50853000 -1.31010000
H 1.43767000 -1.19116000 -0.72095000
H 0.81128000 2.17659000 0.93145000
H -2.15025000 -0.80239000 0.80389000
H -0.28237000 0.30489000 2.39781000
H -0.78492000 -2.17269000 -0.96015000
H 1.84364000 1.23641000 -1.16563000
18
Properties=species:S:1:pos:R:3 REF_energy=-0.07518818236017855 Folder_name=data_5
H 0.78744000 -0.71400000 -2.27114000
C 0.65762000 -0.57968000 -1.18454000
C 0.77480000 1.11120000 0.69222000
C -1.08663000 -0.78148000 0.68254000
C -0.45480000 0.46932000 1.35341000
C -0.71213000 -1.09937000 -0.77365000
C 0.85272000 0.88653000 -0.81090000
H 1.69751000 0.72889000 1.15435000
H -0.85033000 -1.66442000 1.28107000
H -1.21782000 1.24551000 1.44755000
H -1.46666000 -0.68526000 -1.45983000
H 0.08291000 1.49416000 -1.31902000
H 1.44592000 -1.18343000 -0.70069000
H 0.77865000 2.19889000 0.90127000
H -2.18475000 -0.69619000 0.73087000
H -0.18058000 0.21919000 2.39174000
H -0.75031000 -2.19483000 -0.93183000
H 1.82646000 1.24497000 -1.18349000
18
Properties=species:S:1:pos:R:3 REF_energy=-0.07533417123576558 Folder_name=data_6
H 0.79980000 -0.72702000 -2.26227000
C 0.66273000 -0.58408000 -1.17764000
C 0.77211000 1.12622000 0.68321000
C -1.11814000 -0.75601000 0.66799000
C -0.42447000 0.44712000 1.37444000
C -0.70420000 -1.11369000 -0.77158000
C 0.84354000 0.88676000 -0.81747000
H 1.71637000 0.78668000 1.13672000
H -0.98458000 -1.65166000 1.27976000
H -1.17131000 1.22019000 1.57097000
H -1.45138000 -0.73734000 -1.48799000
H 0.06485000 1.48160000 -1.32643000
H 1.45278000 -1.17647000 -0.68357000
H 0.74398000 2.21637000 0.87577000
H -2.20640000 -0.59065000 0.66215000
H -0.08814000 0.13341000 2.37472000
H -0.71931000 -2.21321000 -0.90086000
H 1.81178000 1.25181000 -1.19799000
18
Properties=species:S:1:pos:R:3 REF_energy=-0.07543190055432147 Folder_name=data_7
H 0.80973000 -0.73829000 -2.25423000
C 0.66689000 -0.58781000 -1.17135000
C 0.76742000 1.13926000 0.67584000
C -1.14567000 -0.72908000 0.65396000
C -0.39605000 0.42339000 1.39159000
C -0.69719000 -1.12654000 -0.76735000
C 0.83538000 0.88675000 -0.82288000
H 1.72972000 0.83995000 1.12236000
H -1.11027000 -1.62877000 1.27566000
H -1.12347000 1.18647000 1.68382000
H -1.43809000 -0.78633000 -1.50954000
H 0.04925000 1.47033000 -1.33290000
H 1.45875000 -1.17002000 -0.66875000
H 0.70623000 2.22958000 0.85476000
H -2.21548000 -0.48506000 0.59775000
H -0.00446000 0.04725000 2.34694000
H -0.69165000 -2.22850000 -0.86597000
H 1.79895000 1.25748000 -1.20976000
18
Properties=species:S:1:pos:R:3 REF_energy=-0.07547179794400682 Folder_name=data_8
H 0.81817000 -0.74938000 -2.24605000
C 0.67044000 -0.59134000 -1.16489000
C 0.76070000 1.15134000 0.66939000
C -1.16998000 -0.69904000 0.63934000
C -0.36766000 0.39706000 1.40498000
C -0.69058000 -1.13888000 -0.76083000
C 0.82727000 0.88651000 -0.82761000
H 1.73786000 0.89206000 1.11097000
H -1.23278000 -1.59471000 1.26846000
H -1.07183000 1.14313000 1.79095000
H -1.42650000 -0.83544000 -1.52499000
H 0.03433000 1.45920000 -1.33916000
H 1.46448000 -1.16354000 -0.65457000
H 0.66290000 2.23921000 0.83707000
H -2.21207000 -0.37412000 0.53465000
H 0.07474000 -0.04328000 2.30673000
H -0.66597000 -2.24156000 -0.82451000
H 1.78649000 1.26284000 -1.21995000
18
Properties=species:S:1:pos:R:3 REF_energy=-0.07544697838246794 Folder_name=data_9
H 0.82547000 -0.76096000 -2.23735000
C 0.67351000 -0.59490000 -1.15799000
C 0.75200000 1.16234000 0.66383000
C -1.19057000 -0.66626000 0.62426000
C -0.33949000 0.36874000 1.41429000
C -0.68452000 -1.15057000 -0.75193000
C 0.81887000 0.88606000 -0.83184000
H 1.74043000 0.94264000 1.10290000
H -1.34776000 -1.54964000 1.25792000
H -1.01726000 1.09114000 1.88836000
H -1.41703000 -0.88443000 -1.53367000
H 0.01947000 1.44783000 -1.34549000
H 1.47019000 -1.15688000 -0.64043000
H 0.61435000 2.24522000 0.82258000
H -2.19658000 -0.26113000 0.47465000
H 0.14758000 -0.13512000 2.25556000
H -0.64248000 -2.25227000 -0.77665000
H 1.77380000 1.26825000 -1.22900000
18
Properties=species:S:1:pos:R:3 REF_energy=-0.07536693726209887 Folder_name=data_10
H 0.83268000 -0.77433000 -2.22728000
C 0.67653000 -0.59893000 -1.15005000
C 0.74077000 1.17275000 0.65875000
C -1.20883000 -0.62948000 0.60857000
C -0.31039000 0.33739000 1.42055000
C -0.67875000 -1.16211000 -0.73987000
C 0.80940000 0.88543000 -0.83615000
H 1.73790000 0.99427000 1.09733000
H -1.45983000 -1.49218000 1.24384000
H -0.95745000 1.02916000 1.98003000
H -1.40913000 -0.93568000 -1.53619000
H 0.00326000 1.43518000 -1.35259000
H 1.47651000 -1.14949000 -0.62502000
H 0.55868000 2.24832000 0.80989000
H -2.16877000 -0.14237000 0.41499000
H 0.21757000 -0.23086000 2.19181000
H -0.61967000 -2.26135000 -0.72047000
H 1.75953000 1.27435000 -1.23816000
18
Properties=species:S:1:pos:R:3 REF_energy=-0.07524343844437065 Folder_name=data_11
H 0.84027000 -0.78991000 -2.21548000
C 0.67970000 -0.60360000 -1.14090000
C 0.72700000 1.18231000 0.65395000
C -1.22515000 -0.58941000 0.59258000
C -0.28056000 0.30376000 1.42437000
C -0.67321000 -1.17324000 -0.72450000
C 0.79860000 0.88468000 -0.84079000
H 1.73053000 1.04697000 1.09354000
H -1.56784000 -1.42298000 1.22643000
H -0.89269000 0.95824000 2.06512000
H -1.40237000 -0.98903000 -1.53275000
H -0.01469000 1.42089000 -1.36067000
H 1.48357000 -1.14119000 -0.60798000
H 0.49608000 2.24825000 0.79867000
H -2.12869000 -0.01988000 0.35632000
H 0.28370000 -0.32863000 2.11612000
H -0.59738000 -2.26846000 -0.65603000
H 1.74314000 1.28131000 -1.24799000
18
Properties=species:S:1:pos:R:3 REF_energy=-0.07507557725944125 Folder_name=data_12
H 0.84911000 -0.80872000 -2.20092000
C 0.68319000 -0.60924000 -1.12976000
C 0.71002000 1.19104000 0.64926000
C -1.23971000 -0.54468000 0.57594000
C -0.24915000 0.26696000 1.42556000
C -0.66779000 -1.18412000 -0.70481000
C 0.78560000 0.88367000 -0.84599000
H 1.71837000 1.10344000 1.08978000
H -1.67538000 -1.33920000 1.20453000
H -0.81972000 0.87595000 2.14628000
H -1.39524000 -1.04677000 -1.52369000
H -0.03546000 1.40390000 -1.37017000
H 1.49170000 -1.13138000 -0.58828000
H 0.42425000 2.24433000 0.78831000
H -2.07493000 0.10753000 0.29743000
H 0.34668000 -0.42903000 2.02671000
H -0.57476000 -2.27310000 -0.58069000
H 1.72322000 1.28950000 -1.25946000
18
Properties=species:S:1:pos:R:3 REF_energy=-0.07482804876253846 Folder_name=data_13
H 0.86115000 -0.83423000 -2.18032000
C 0.68714000 -0.61673000 -1.11420000
C 0.68708000 1.19943000 0.64448000
C -1.25240000 -0.49010000 0.55731000
C -0.21329000 0.22326000 1.42279000
C -0.66240000 -1.19560000 -0.67699000
C 0.76786000 0.88187000 -0.85222000
H 1.69944000 1.17313000 1.08204000
H -1.79598000 -1.22631000 1.17159000
H -0.72466000 0.76922000 2.23222000
H -1.38369000 -1.11771000 -1.50810000
H -0.06179000 1.38101000 -1.38312000
H 1.50235000 -1.11810000 -0.56342000
H 0.33453000 2.23425000 0.77756000
H -2.00200000 0.24641000 0.23357000
H 0.41077000 -0.53601000 1.91619000
H -0.54958000 -2.27391000 -0.48435000
H 1.69550000 1.30020000 -1.27500000
18
Properties=species:S:1:pos:R:3 REF_energy=-0.07446458677547352 Folder_name=data_14
H 0.87799000 -0.87011000 -2.14795000
C 0.69162000 -0.62726000 -1.09000000
C 0.65646000 1.20973000 0.63886000
C -1.26241000 -0.42384000 0.53466000
C -0.17000000 0.17234000 1.41476000
C -0.65662000 -1.20981000 -0.63848000
C 0.74108000 0.87855000 -0.85945000
H 1.66988000 1.26676000 1.06934000
H -1.93325000 -1.07023000 1.12218000
H -0.59875000 0.62621000 2.32206000
H -1.36641000 -1.21278000 -1.48215000
H -0.10260000 1.34596000 -1.39654000
H 1.51382000 -1.09839000 -0.52362000
H 0.21639000 2.21243000 0.76749000
H -1.89402000 0.39665000 0.15172000
H 0.48482000 -0.64382000 1.76673000
H -0.52158000 -2.26621000 -0.35325000
H 1.65357000 1.31392000 -1.29630000
