16
Properties=species:S:1:pos:R:3 REF_energy=-0.07399985657799268 Folder_name=data_0
C 0.56134000 1.68201000 -0.67026000
C 1.63441000 0.72015000 -0.40250000
C 1.69259000 -0.11786000 0.64068000
C -1.08927000 -2.40924000 -0.16393000
C -1.86595000 -1.34438000 0.02374000
C -0.20677000 2.27588000 0.25253000
H 0.40192000 1.93673000 -1.72490000
H 2.44128000 0.68876000 -1.14444000
H 0.88854000 -0.17365000 1.38040000
H 2.54131000 -0.79260000 0.77644000
H -0.04037000 -2.30148000 -0.45634000
H -1.46647000 -3.42846000 -0.03355000
H -2.91587000 -1.44519000 0.31672000
H -1.48346000 -0.32752000 -0.10985000
H -1.00090000 2.96979000 -0.03328000
H -0.05797000 2.09929000 1.32213000
16
Properties=species:S:1:pos:R:3 REF_energy=-0.07395726755476284 Folder_name=data_1
C 0.57612000 1.68074000 -0.66115000
C 1.64904000 0.72403000 -0.37578000
C 1.68743000 -0.14369000 0.64373000
C -1.06498000 -2.36468000 -0.16992000
C -1.85146000 -1.31400000 0.04245000
C -0.25169000 2.24333000 0.22864000
H 0.45191000 1.93999000 -1.71987000
H 2.46513000 0.69899000 -1.10774000
H 0.87385000 -0.22340000 1.37041000
H 2.52688000 -0.83356000 0.75899000
H -0.04374000 -2.24219000 -0.54372000
H -1.40554000 -3.38807000 0.01981000
H -2.87092000 -1.42838000 0.42543000
H -1.50092000 -0.29269000 -0.14105000
H -1.05022000 2.91412000 -0.09718000
H -0.15853000 2.05851000 1.30289000
16
Properties=species:S:1:pos:R:3 REF_energy=-0.07390235559309466 Folder_name=data_2
C 0.58970000 1.68158000 -0.64963000
C 1.66101000 0.72876000 -0.34748000
C 1.67919000 -0.16932000 0.64606000
C -1.04079000 -2.32387000 -0.17580000
C -1.83801000 -1.28666000 0.05764000
C -0.29343000 2.21364000 0.20480000
H 0.50100000 1.94778000 -1.71058000
H 2.48503000 0.70901000 -1.07043000
H 0.85689000 -0.27202000 1.35937000
H 2.50915000 -0.87320000 0.74019000
H -0.05390000 -2.18930000 -0.62911000
H -1.33648000 -3.34757000 0.07796000
H -2.81704000 -1.41029000 0.53219000
H -1.52454000 -0.26368000 -0.17782000
H -1.09206000 2.86343000 -0.15989000
H -0.25559000 2.01865000 1.28021000
16
Properties=species:S:1:pos:R:3 REF_energy=-0.07382686048841747 Folder_name=data_3
C 0.60025000 1.68193000 -0.63621000
C 1.66905000 0.73176000 -0.31912000
C 1.66940000 -0.19542000 0.64771000
C -1.01616000 -2.28485000 -0.18113000
C -1.82448000 -1.25926000 0.07004000
C -0.33305000 2.18493000 0.18177000
H 0.54635000 1.95787000 -1.69727000
H 2.49902000 0.71641000 -1.03492000
H 0.84062000 -0.31920000 1.34926000
H 2.49027000 -0.91173000 0.71940000
H -0.06744000 -2.14174000 -0.70648000
H -1.26167000 -3.30344000 0.13642000
H -2.75539000 -1.38713000 0.63127000
H -1.55154000 -0.23825000 -0.21636000
H -1.12864000 2.81546000 -0.22000000
H -0.34841000 1.97786000 1.25481000
16
Properties=species:S:1:pos:R:3 REF_energy=-0.0737341281634285 Folder_name=data_4
C 0.61028000 1.68326000 -0.61959000
C 1.67586000 0.73474000 -0.28803000
C 1.65965000 -0.22215000 0.64960000
C -0.99253000 -2.24604000 -0.18816000
C -1.81098000 -1.23143000 0.08235000
C -0.37456000 2.15327000 0.15683000
H 0.59319000 1.97153000 -1.67883000
H 2.50968000 0.72313000 -0.99879000
H 0.82717000 -0.36595000 1.34176000
H 2.47048000 -0.95114000 0.69523000
H -0.08798000 -2.09557000 -0.78287000
H -1.17754000 -3.25304000 0.19717000
H -2.68224000 -1.35693000 0.73061000
H -1.58426000 -0.21627000 -0.25707000
H -1.16405000 2.76465000 -0.28316000
H -0.44592000 1.93150000 1.22359000
16
Properties=species:S:1:pos:R:3 REF_energy=-0.07363678981683441 Folder_name=data_5
C 0.62113000 1.68682000 -0.59853000
C 1.68387000 0.74048000 -0.25130000
C 1.65119000 -0.24882000 0.65208000
C -0.97018000 -2.20575000 -0.19478000
C -1.79695000 -1.20358000 0.09871000
C -0.42132000 2.11558000 0.12533000
H 0.64640000 1.99075000 -1.65346000
H 2.52053000 0.73382000 -0.95824000
H 0.81864000 -0.41369000 1.33875000
H 2.45161000 -0.99011000 0.66782000
H -0.12355000 -2.05305000 -0.86799000
H -1.07932000 -3.19448000 0.25958000
H -2.59041000 -1.31900000 0.83959000
H -1.62901000 -0.19887000 -0.29693000
H -1.20034000 2.70536000 -0.35913000
H -0.55841000 1.87616000 1.18075000
16
Properties=species:S:1:pos:R:3 REF_energy=-0.07346946938639531 Folder_name=data_6
C 0.62934000 1.68861000 -0.57331000
C 1.68937000 0.74341000 -0.21324000
C 1.64677000 -0.27699000 0.65507000
C -0.94442000 -2.16636000 -0.20523000
C -1.78643000 -1.16716000 0.12321000
C -0.46714000 2.07606000 0.09241000
H 0.69915000 2.01313000 -1.62058000
H 2.52581000 0.74085000 -0.92057000
H 0.81892000 -0.46693000 1.34020000
H 2.43669000 -1.02838000 0.63413000
H -0.16527000 -2.00853000 -0.94428000
H -0.97320000 -3.12142000 0.30970000
H -2.49042000 -1.27879000 0.94061000
H -1.69006000 -0.18245000 -0.32347000
H -1.23429000 2.63623000 -0.44191000
H -0.67304000 1.81859000 1.13096000
16
Properties=species:S:1:pos:R:3 REF_energy=-0.07333186952814463 Folder_name=data_7
C 0.63640000 1.69058000 -0.54683000
C 1.69482000 0.74693000 -0.17624000
C 1.64607000 -0.30288000 0.65684000
C -0.92633000 -2.12217000 -0.21197000
C -1.77694000 -1.13792000 0.15123000
C -0.50812000 2.03658000 0.05794000
H 0.74775000 2.03214000 -1.58558000
H 2.52810000 0.74805000 -0.88714000
H 0.82637000 -0.51855000 1.34388000
H 2.42784000 -1.06055000 0.60020000
H -0.21637000 -1.96419000 -1.01328000
H -0.86712000 -3.04734000 0.34651000
H -2.39503000 -1.24338000 1.03152000
H -1.75779000 -0.16906000 -0.33198000
H -1.25887000 2.56780000 -0.52537000
H -0.78101000 1.76209000 1.07544000
16
Properties=species:S:1:pos:R:3 REF_energy=-0.07325918199262449 Folder_name=data_8
C 0.64060000 1.68989000 -0.51911000
C 1.69800000 0.74728000 -0.13970000
C 1.64754000 -0.33108000 0.65754000
C -0.91444000 -2.06454000 -0.21233000
C -1.76110000 -1.11369000 0.18168000
C -0.54754000 1.99427000 0.01986000
H 0.79664000 2.05314000 -1.54575000
H 2.52833000 0.75520000 -0.85428000
H 0.83995000 -0.57443000 1.34929000
H 2.42023000 -1.09366000 0.56018000
H -0.27149000 -1.91505000 -1.07506000
H -0.75823000 -2.96613000 0.37483000
H -2.29812000 -1.20560000 1.12055000
H -1.83722000 -0.15626000 -0.32911000
H -1.27848000 2.49106000 -0.61514000
H -0.88678000 1.70614000 1.01304000
16
Properties=species:S:1:pos:R:3 REF_energy=-0.07313119160273829 Folder_name=data_9
C 0.63955000 1.68241000 -0.49853000
C 1.69679000 0.74138000 -0.11370000
C 1.64914000 -0.35647000 0.65845000
C -0.89867000 -2.01240000 -0.20964000
C -1.74968000 -1.08508000 0.20504000
C -0.57740000 1.95770000 -0.00802000
H 0.82903000 2.06450000 -1.51362000
H 2.52313000 0.75531000 -0.83328000
H 0.85373000 -0.62191000 1.35555000
H 2.41270000 -1.12261000 0.52547000
H -0.31131000 -1.87138000 -1.11392000
H -0.66664000 -2.88758000 0.39777000
H -2.22335000 -1.16498000 1.18113000
H -1.90438000 -0.14449000 -0.32620000
H -1.29213000 2.42254000 -0.68342000
H -0.96383000 1.65864000 0.96424000
16
Properties=species:S:1:pos:R:3 REF_energy=-0.07283756504796568 Folder_name=data_10
C 0.62867000 1.66132000 -0.48459000
C 1.68626000 0.72022000 -0.09905000
C 1.64246000 -0.38720000 0.66071000
C -0.86475000 -1.95313000 -0.20629000
C -1.73255000 -1.03642000 0.21329000
C -0.60394000 1.91647000 -0.01995000
H 0.83910000 2.06231000 -1.48969000
H 2.50868000 0.73938000 -0.82406000
H 0.86020000 -0.66272000 1.36834000
H 2.39354000 -1.15953000 0.49663000
H -0.32006000 -1.82537000 -1.13833000
H -0.57711000 -2.79412000 0.42613000
H -2.16156000 -1.10009000 1.21131000
H -1.95674000 -0.12637000 -0.34700000
H -1.31317000 2.35227000 -0.72097000
H -1.01278000 1.60831000 0.94115000
16
Properties=species:S:1:pos:R:3 REF_energy=-0.072135049638677 Folder_name=data_11
C 0.60379000 1.61735000 -0.47621000
C 1.65842000 0.67359000 -0.09781000
C 1.61589000 -0.43602000 0.66183000
C -0.80037000 -1.86175000 -0.20227000
C -1.69587000 -0.96264000 0.19253000
C -0.63486000 1.85506000 -0.01350000
H 0.82545000 2.05545000 -1.46420000
H 2.48387000 0.70026000 -0.82038000
H 0.85921000 -0.68810000 1.40499000
H 2.35055000 -1.21883000 0.47432000
H -0.28546000 -1.77223000 -1.16134000
H -0.47630000 -2.66862000 0.46560000
H -2.09820000 -0.98814000 1.20874000
H -2.00610000 -0.11235000 -0.42458000
H -1.35675000 2.26345000 -0.72087000
H -1.02663000 1.55922000 0.96047000
16
Properties=species:S:1:pos:R:3 REF_energy=-0.07100340634193003 Folder_name=data_12
C 0.58607000 1.58131000 -0.46829000
C 1.63199000 0.63568000 -0.09625000
C 1.57847000 -0.48763000 0.64758000
C -0.73718000 -1.76997000 -0.19318000
C -1.64693000 -0.89647000 0.17942000
C -0.66805000 1.78450000 -0.02533000
H 0.83357000 2.08311000 -1.41800000
H 2.47581000 0.68446000 -0.79592000
H 0.88133000 -0.70048000 1.45663000
H 2.30899000 -1.27259000 0.44704000
H -0.26963000 -1.74227000 -1.18921000
H -0.40013000 -2.57258000 0.49026000
H -2.02918000 -0.89702000 1.21385000
H -2.09140000 -0.14605000 -0.49080000
H -1.39352000 2.17108000 -0.74573000
H -1.04388000 1.56022000 0.97552000
16
Properties=species:S:1:pos:R:3 REF_energy=-0.06536604960642389 Folder_name=data_13
C 0.57349000 1.53570000 -0.47267000
C 1.59194000 0.59444000 -0.11652000
C 1.48630000 -0.56238000 0.60000000
C -0.61381000 -1.65139000 -0.17470000
C -1.57948000 -0.78376000 0.17696000
C -0.70711000 1.66834000 -0.03555000
H 0.84403000 2.12028000 -1.36357000
H 2.47298000 0.67693000 -0.76267000
H 0.91698000 -0.69593000 1.51506000
H 2.25386000 -1.31700000 0.42614000
H -0.25894000 -1.72243000 -1.20371000
H -0.36648000 -2.49203000 0.48556000
H -1.96931000 -0.82343000 1.19553000
H -2.16959000 -0.21749000 -0.53671000
H -1.42243000 2.08714000 -0.74859000
H -1.03626000 1.59814000 1.00305000
16
Properties=species:S:1:pos:R:3 REF_energy=-0.056704819826291164 Folder_name=data_14
C 0.57215000 1.50951000 -0.48160000
C 1.56487000 0.57624000 -0.13870000
C 1.40042000 -0.61325000 0.55921000
C -0.50940000 -1.58098000 -0.15221000
C -1.52735000 -0.70300000 0.17406000
C -0.73380000 1.58798000 -0.02705000
H 0.83960000 2.13399000 -1.34450000
H 2.47088000 0.66793000 -0.75416000
H 0.92896000 -0.68046000 1.53893000
H 2.21470000 -1.33227000 0.42386000
H -0.24124000 -1.71483000 -1.20555000
H -0.38002000 -2.47814000 0.47710000
H -1.95710000 -0.79832000 1.17534000
H -2.18238000 -0.24882000 -0.56060000
H -1.43484000 2.05937000 -0.72764000
H -1.00899000 1.63054000 1.03090000
16
Properties=species:S:1:pos:R:3 REF_energy=-0.05777607799888007 Folder_name=data_15
C 0.57530000 1.48379000 -0.48964000
C 1.54193000 0.57221000 -0.16494000
C 1.31027000 -0.67038000 0.52268000
C -0.39948000 -1.52304000 -0.12504000
C -1.47767000 -0.60205000 0.17240000
C -0.77164000 1.48860000 -0.01389000
H 0.83529000 2.14897000 -1.32456000
H 2.47256000 0.66283000 -0.74646000
H 0.93786000 -0.66574000 1.55016000
H 2.17947000 -1.34517000 0.41976000
H -0.22792000 -1.70735000 -1.19985000
H -0.39750000 -2.46661000 0.46999000
H -1.94793000 -0.77471000 1.15626000
H -2.18755000 -0.27935000 -0.58011000
H -1.44391000 2.03000000 -0.70685000
H -0.98241000 1.66368000 1.04722000
16
Properties=species:S:1:pos:R:3 REF_energy=-0.06657787069593157 Folder_name=data_16
C 0.54293000 1.40417000 -0.51204000
C 1.48983000 0.52664000 -0.22644000
C 1.17880000 -0.74904000 0.46755000
C -0.25490000 -1.39837000 -0.09607000
C -1.37432000 -0.38590000 0.14262000
C -0.83957000 1.28452000 0.02506000
H 0.80182000 2.17399000 -1.24321000
H 2.47208000 0.64488000 -0.69785000
H 0.97224000 -0.63420000 1.54422000
H 2.07923000 -1.39975000 0.40749000
H -0.17695000 -1.67220000 -1.16960000
H -0.42474000 -2.37371000 0.43991000
H -1.89382000 -0.66194000 1.08838000
H -2.16172000 -0.37641000 -0.60566000
H -1.48549000 1.92245000 -0.62362000
H -0.90795000 1.71150000 1.04577000
16
Properties=species:S:1:pos:R:3 REF_energy=-0.06606202312179488 Folder_name=data_17
C 0.50828000 1.35826000 -0.50892000
C 1.47079000 0.48627000 -0.23260000
C 1.14108000 -0.78646000 0.43139000
C -0.20710000 -1.30951000 -0.09886000
C -1.31498000 -0.30370000 0.11895000
C -0.87425000 1.18970000 -0.01981000
H 0.77678000 2.22985000 -1.06018000
H 2.48466000 0.66845000 -0.54678000
H 1.06158000 -0.66780000 1.52901000
H 1.98234000 -1.49725000 0.32072000
H -0.13107000 -1.61407000 -1.15560000
H -0.43073000 -2.25309000 0.42002000
H -1.77134000 -0.48209000 1.10138000
H -2.15947000 -0.49160000 -0.54958000
H -1.55327000 1.72718000 -0.69912000
H -0.96720000 1.76120000 0.93767000
16
Properties=species:S:1:pos:R:3 REF_energy=-0.06629819791214753 Folder_name=data_18
C 0.51188000 1.36597000 -0.47724000
C 1.47747000 0.49661000 -0.19766000
C 1.14655000 -0.80616000 0.41919000
C -0.19140000 -1.30966000 -0.09797000
C -1.31173000 -0.29651000 0.13853000
C -0.90001000 1.17614000 -0.07461000
H 0.78199000 2.27543000 -0.97057000
H 2.50490000 0.70772000 -0.45561000
H 1.11140000 -0.71505000 1.52468000
H 1.96536000 -1.52534000 0.24905000
H -0.13254000 -1.59038000 -1.16368000
H -0.43541000 -2.24039000 0.42032000
H -1.70875000 -0.42471000 1.15566000
H -2.18406000 -0.52892000 -0.49168000
H -1.55490000 1.63023000 -0.83127000
H -1.06656000 1.79849000 0.84212000
16
Properties=species:S:1:pos:R:3 REF_energy=-0.06653976893764901 Folder_name=data_19
C 0.51454000 1.37835000 -0.44204000
C 1.48165000 0.50937000 -0.15875000
C 1.14727000 -0.82641000 0.40798000
C -0.17859000 -1.31100000 -0.09204000
C -1.31128000 -0.29117000 0.16322000
C -0.92394000 1.16574000 -0.12208000
H 0.78912000 2.31670000 -0.89960000
H 2.52329000 0.74730000 -0.37629000
H 1.15451000 -0.76362000 1.51955000
H 1.96112000 -1.53530000 0.18345000
H -0.14399000 -1.57026000 -1.17378000
H -0.44217000 -2.24574000 0.41579000
H -1.65271000 -0.38599000 1.20675000
H -2.21048000 -0.55313000 -0.42851000
H -1.53285000 1.54548000 -0.95418000
H -1.16321000 1.83135000 0.74118000
16
Properties=species:S:1:pos:R:3 REF_energy=-0.06668547146816095 Folder_name=data_20
C 0.51114000 1.39680000 -0.40514000
C 1.48424000 0.52308000 -0.11514000
C 1.14838000 -0.84544000 0.39651000
C -0.17388000 -1.31105000 -0.08719000
C -1.30839000 -0.27859000 0.19118000
C -0.94813000 1.14725000 -0.17042000
H 0.79583000 2.35901000 -0.82820000
H 2.53607000 0.78843000 -0.28973000
H 1.19651000 -0.82061000 1.51110000
H 1.95939000 -1.53740000 0.11151000
H -0.16059000 -1.54624000 -1.18481000
H -0.44935000 -2.25949000 0.40768000
H -1.58376000 -0.34645000 1.26337000
H -2.23817000 -0.57307000 -0.34721000
H -1.49279000 1.45060000 -1.08133000
H -1.26636000 1.86278000 0.62007000
16
Properties=species:S:1:pos:R:3 REF_energy=-0.06680546595008874 Folder_name=data_21
C 0.50641000 1.41444000 -0.37498000
C 1.47999000 0.53857000 -0.07769000
C 1.15594000 -0.85464000 0.38727000
C -0.18513000 -1.31242000 -0.08556000
C -1.30292000 -0.26837000 0.21985000
C -0.96392000 1.13002000 -0.21604000
H 0.79939000 2.39504000 -0.76542000
H 2.53671000 0.82354000 -0.20590000
H 1.22998000 -0.87408000 1.49884000
H 1.95707000 -1.53195000 0.04482000
H -0.17785000 -1.52281000 -1.18916000
H -0.45687000 -2.27622000 0.39641000
H -1.51280000 -0.30979000 1.31412000
H -2.25656000 -0.58872000 -0.26133000
H -1.44537000 1.35855000 -1.18932000
H -1.35603000 1.88636000 0.49804000
16
Properties=species:S:1:pos:R:3 REF_energy=-0.06684178243395777 Folder_name=data_22
C 0.49850000 1.42866000 -0.34216000
C 1.46644000 0.55689000 -0.03335000
C 1.16665000 -0.85962000 0.37299000
C -0.20168000 -1.31132000 -0.08612000
C -1.29095000 -0.26640000 0.25622000
C -0.97199000 1.11307000 -0.27789000
H 0.78780000 2.43019000 -0.68325000
H 2.52148000 0.86406000 -0.09841000
H 1.26858000 -0.93893000 1.47636000
H 1.94932000 -1.51941000 -0.03588000
H -0.20262000 -1.49242000 -1.18841000
H -0.46334000 -2.28155000 0.38555000
H -1.41253000 -0.24614000 1.36269000
H -2.27105000 -0.60083000 -0.14782000
H -1.38136000 1.23242000 -1.30366000
H -1.45809000 1.89598000 0.33929000
16
Properties=species:S:1:pos:R:3 REF_energy=-0.06655084405751388 Folder_name=data_23
C 0.47663000 1.44120000 -0.31247000
C 1.43889000 0.57521000 0.02583000
C 1.17567000 -0.86705000 0.34537000
C -0.22216000 -1.30350000 -0.08311000
C -1.26282000 -0.25969000 0.30538000
C -0.97736000 1.07579000 -0.37505000
H 0.74805000 2.47404000 -0.55680000
H 2.47722000 0.92114000 0.07416000
H 1.31079000 -1.02971000 1.43197000
H 1.94064000 -1.49948000 -0.13685000
H -0.23939000 -1.43675000 -1.17933000
H -0.46829000 -2.28362000 0.35510000
H -1.23947000 -0.11993000 1.40069000
H -2.27784000 -0.60714000 0.05590000
H -1.29899000 1.04202000 -1.43373000
H -1.58147000 1.87760000 0.08304000
