14
Properties=species:S:1:pos:R:3 REF_energy=-0.06099889430908423 Folder_name=data_0
C -1.95634401 -0.05974683 -0.16742871
C -0.50654263 0.29564663 -0.49390315
C 0.50361275 -0.29611170 0.49239918
C 1.95338126 0.05950396 0.16592578
H -2.24178939 0.30537389 0.83357067
H -2.11159298 -1.15182236 -0.17464480
H -2.65738303 0.38060018 -0.89437398
H -0.38991381 1.39485588 -0.51523055
H -0.26042979 -0.05047698 -1.51467426
H 0.25765416 0.04982142 1.51326303
H 0.38686496 -1.39533965 0.51351656
H 2.65449202 -0.38058051 0.89295996
H 2.10846274 1.15161730 0.17291898
H 2.23891867 -0.30576352 -0.83499977
14
Properties=species:S:1:pos:R:3 REF_energy=-0.0610074651141016 Folder_name=data_1
C -2.01297350 -0.01709700 -0.16740125
C -0.55206620 0.23009231 -0.54112090
C 0.44368403 -0.35455416 0.46535666
C 1.88492663 0.09424242 0.22775067
H -2.25538343 0.43578936 0.80855582
H -2.23188031 -1.09580065 -0.09179974
H -2.70214829 0.40959064 -0.91360288
H -0.37886894 1.31901583 -0.62443066
H -0.34320440 -0.18243260 -1.54503066
H 0.13607661 -0.05952950 1.48567361
H 0.38230488 -1.45789407 0.44298880
H 2.57592669 -0.34832874 0.96293619
H 1.97662066 1.19085801 0.30117334
H 2.23678055 -0.19778058 -0.77632260
14
Properties=species:S:1:pos:R:3 REF_energy=-0.061032480813885126 Folder_name=data_2
C -1.99133289 0.01876594 -0.14811425
C -0.53322629 0.16402506 -0.58228545
C 0.46805330 -0.41827260 0.42421421
C 1.88603087 0.12817207 0.26182731
H -2.17522493 0.54772564 0.80188230
H -2.26306886 -1.03929586 0.00767335
H -2.68341962 0.43091607 -0.89988137
H -0.31151175 1.23806925 -0.72335630
H -0.37978225 -0.30298697 -1.57170137
H 0.11639154 -0.19085222 1.44756211
H 0.47136043 -1.52056175 0.34980628
H 2.58212566 -0.32266241 0.98722556
H 1.90790010 1.22056342 0.41121208
H 2.28341506 -0.07281665 -0.74777174
14
Properties=species:S:1:pos:R:3 REF_energy=-0.061070823473574065 Folder_name=data_3
C -1.83627596 0.07989600 -0.07012869
C -0.37713337 0.11623553 -0.52413684
C 0.60215573 -0.49205873 0.49486310
C 1.99582303 0.13465126 0.45573801
H -1.97357448 0.65528721 0.86051377
H -2.17249617 -0.95202555 0.12961218
H -2.51061224 0.50604412 -0.83029022
H -0.09473076 1.17004286 -0.70286612
H -0.26597298 -0.38857063 -1.50004505
H 0.18798027 -0.35584369 1.51077800
H 0.66812346 -1.58448347 0.34713379
H 2.67536041 -0.33622182 1.18420785
H 1.94983514 1.21178887 0.68740328
H 2.45744339 0.03300834 -0.54145061
14
Properties=species:S:1:pos:R:3 REF_energy=-0.061115174632111025 Folder_name=data_4
C -1.81202136 0.12507826 -0.03229769
C -0.37599083 0.05611831 -0.55246517
C 0.62252055 -0.54722080 0.45762646
C 1.97556594 0.16414247 0.48542859
H -1.87357769 0.75499682 0.87085643
H -2.19306014 -0.87456287 0.23830691
H -2.49814168 0.54854997 -0.78351942
H -0.05044473 1.08070090 -0.80899616
H -0.34289620 -0.50799087 -1.50071846
H 0.18258790 -0.49550113 1.47021390
H 0.76380556 -1.62290225 0.25403617
H 2.66622253 -0.30086105 1.20735499
H 1.85747517 1.22337526 0.76889086
H 2.46514571 0.14171990 -0.50325896
14
Properties=species:S:1:pos:R:3 REF_energy=-0.06114774050449712 Folder_name=data_5
C -1.77573649 0.17154800 -0.00898459
C -0.36902643 0.00183444 -0.58386998
C 0.64663238 -0.59286401 0.41948290
C 1.94919042 0.20156534 0.52163474
H -1.76707113 0.84466494 0.86482940
H -2.19391186 -0.79347378 0.32437807
H -2.47144062 0.59593881 -0.75091391
H -0.00732014 0.98931992 -0.92255065
H -0.41229596 -0.62090751 -1.49388836
H 0.18283372 -0.63589159 1.42132785
H 0.87047911 -1.64094133 0.15632841
H 2.64804755 -0.25152142 1.24335345
H 1.75594704 1.23729867 0.84816864
H 2.46570963 0.25541195 -0.45179649
14
Properties=species:S:1:pos:R:3 REF_energy=-0.06115793562371208 Folder_name=data_6
C -1.74310551 0.21959484 0.00595079
C -0.37190341 -0.05086506 -0.61499343
C 0.65878040 -0.63428570 0.38197297
C 1.90272589 0.23722583 0.56100433
H -1.66598926 0.93050820 0.84613382
H -2.19365876 -0.70679549 0.40030104
H -2.44674425 0.64584480 -0.72742034
H 0.02141451 0.89016440 -1.03901909
H -0.49190406 -0.73083314 -1.47567192
H 0.17641165 -0.77677446 1.36536589
H 0.96710838 -1.64345882 0.05942488
H 2.60767596 -0.20113591 1.28594108
H 1.63425459 1.24390903 0.92399334
H 2.44228298 0.36529686 -0.39251354
14
Properties=species:S:1:pos:R:3 REF_energy=-0.061136857587341886 Folder_name=data_7
C -1.74177868 0.27019185 -0.00432323
C -0.41597705 -0.10214463 -0.67013004
C 0.63509599 -0.66650186 0.31495532
C 1.81347398 0.27725102 0.56061518
H -1.59484100 1.02312851 0.78888470
H -2.21241853 -0.61097168 0.46268347
H -2.45997911 0.68757692 -0.72857917
H -0.00066310 0.78141539 -1.18636339
H -0.61654191 -0.83932378 -1.46640642
H 0.14770378 -0.90724021 1.27627933
H 1.02573960 -1.62646576 -0.06398607
H 2.53213122 -0.14516619 1.28149987
H 1.47358521 1.24779253 0.96086600
H 2.36010279 0.48138800 -0.37509831
14
Properties=species:S:1:pos:R:3 REF_energy=-0.061086540437923054 Folder_name=data_8
C -2.08656556 0.29798774 -0.08436421
C -0.83911703 -0.14869955 -0.84893412
C 0.29977444 -0.64775203 0.06628987
C 1.39302015 0.39524204 0.30535100
H -1.85346023 1.10077460 0.63602199
H -2.52028912 -0.53963463 0.48663406
H -2.86681219 0.67963511 -0.76262794
H -0.46906639 0.67724076 -1.48187514
H -1.12889503 -0.95068190 -1.54966058
H -0.12104760 -0.98066776 1.03158534
H 0.76520797 -1.54453065 -0.37792713
H 2.17245378 0.02121590 0.98877273
H 0.98107055 1.31853661 0.74761493
H 1.88448152 0.67560512 -0.64102709
14
Properties=species:S:1:pos:R:3 REF_energy=-0.061021572433061944 Folder_name=data_9
C -2.03062390 0.37598088 -0.08670359
C -0.83400318 -0.18833826 -0.85502802
C 0.29326740 -0.70946997 0.05540841
C 1.33541969 0.35317460 0.40930873
H -1.73282284 1.20106031 0.58248371
H -2.49869016 -0.40188921 0.53912049
H -2.80391758 0.76756802 -0.76713142
H -0.42841920 0.57549146 -1.54241342
H -1.19158816 -1.00958119 -1.50031837
H -0.14435951 -1.13492120 0.97621668
H 0.80826213 -1.54827831 -0.44445818
H 2.11190102 -0.04553643 1.08190812
H 0.87738048 1.22105665 0.91350983
H 1.83872364 0.72800759 -0.49732926
14
Properties=species:S:1:pos:R:3 REF_energy=-0.06095757833511495 Folder_name=data_10
C -2.13237539 0.21360564 0.07372980
C -1.07325621 -0.46783118 -0.79505862
C 0.12233594 -1.01693541 -0.00107683
C 1.15594773 0.04624286 0.37551007
H -1.71294616 1.05801467 0.64573948
H -2.56084165 -0.49596934 0.80111704
H -2.96153999 0.60993037 -0.53413569
H -0.70814781 0.23273106 -1.56789795
H -1.55199513 -1.29720972 -1.34476289
H -0.24575376 -1.52694474 0.90765734
H 0.62446249 -1.79712670 -0.59970880
H 1.99323276 -0.38690421 0.94592836
H 0.71628569 0.84539054 0.99530677
H 1.57681662 0.52268962 -0.52562780
14
Properties=species:S:1:pos:R:3 REF_energy=-0.06090479437308394 Folder_name=data_11
C -2.03849915 0.21921836 0.04417559
C -1.03660306 -0.55550330 -0.81384105
C 0.18282504 -1.07823973 -0.04225586
C 1.15121104 0.01311424 0.41745727
H -1.58684950 1.11726488 0.49593557
H -2.42206908 -0.40677231 0.86761000
H -2.90379731 0.55268453 -0.55076216
H -0.69126984 0.08034320 -1.64981567
H -1.55497266 -1.41118609 -1.28097711
H -0.16356875 -1.66153765 0.83079761
H 0.72934574 -1.79216646 -0.68313697
H 2.02448323 -0.41624244 0.93411716
H 0.67450281 0.72102993 1.11470536
H 1.52592859 0.59700965 -0.44029581
14
Properties=species:S:1:pos:R:3 REF_energy=-0.060870815816172374 Folder_name=data_12
C -1.99701160 0.27617141 0.03025605
C -1.05706467 -0.58865983 -0.81137375
C 0.18429694 -1.09656675 -0.06557309
C 1.09325596 0.00442899 0.48343595
H -1.51442422 1.21049200 0.35843630
H -2.32945774 -0.25969293 0.93594534
H -2.89798223 0.55618462 -0.53866245
H -0.73355951 -0.01552390 -1.70021756
H -1.61487080 -1.45782936 -1.20187352
H -0.13799214 -1.75057720 0.76604043
H 0.76609085 -1.74225008 -0.74653443
H 1.99674342 -0.41982380 0.94985087
H 0.58649597 0.61427105 1.24817725
H 1.42298026 0.68724279 -0.31843632
14
Properties=species:S:1:pos:R:3 REF_energy=-0.06086696084907761 Folder_name=data_13
C -1.95362760 0.35081053 0.01615020
C -1.07350859 -0.60138214 -0.79528478
C 0.18501848 -1.10047028 -0.06849537
C 1.03601347 -0.00536199 0.57673659
H -1.43534151 1.29527009 0.24433068
H -2.25797142 -0.09977428 0.97682453
H -2.87295935 0.60645110 -0.53455998
H -0.76871992 -0.09100321 -1.72809177
H -1.66817928 -1.47500736 -1.11403723
H -0.11685822 -1.82003386 0.71547279
H 0.80035270 -1.67668600 -0.78109441
H 1.95771180 -0.42444996 1.01106726
H 0.49698099 0.50970291 1.38719444
H 1.33580527 0.76032517 -0.15973996
14
Properties=species:S:1:pos:R:3 REF_energy=-0.06090516328759943 Folder_name=data_14
C -1.83288480 0.45096110 0.01446258
C -1.01269161 -0.59982850 -0.73604331
C 0.23266894 -1.12127736 0.00587341
C 1.03146605 -0.06535680 0.77211852
H -1.25958855 1.37599125 0.18092509
H -2.16248908 0.08401729 1.00203854
H -2.73692698 0.72257393 -0.55366999
H -0.69390003 -0.15976746 -1.69936141
H -1.65446818 -1.45741604 -1.00109141
H -0.08264792 -1.89957206 0.72566322
H 0.88843211 -1.63592625 -0.71710674
H 1.93771046 -0.50567394 1.21787356
H 0.44468276 0.37761750 1.59157431
H 1.35564619 0.75959545 0.11411455
14
Properties=species:S:1:pos:R:3 REF_energy=-0.06098282947884215 Folder_name=data_15
C -1.80254191 0.45992890 -0.09059418
C -1.05534048 -0.67057754 -0.80089731
C 0.21473096 -1.19288827 -0.09191713
C 0.97486262 -0.17314663 0.75856025
H -1.18452965 1.36674057 -0.00445272
H -2.11534730 0.17503081 0.92858678
H -2.71272077 0.73437966 -0.64756625
H -0.77521848 -0.30421369 -1.80595823
H -1.73957394 -1.51682215 -0.98117290
H -0.06807835 -2.03288861 0.56930616
H 0.89126872 -1.63159933 -0.84466306
H 1.88464985 -0.62439830 1.18588354
H 0.36499954 0.19369082 1.59828501
H 1.29008998 0.70563455 0.17025440
14
Properties=species:S:1:pos:R:3 REF_energy=-0.06107475504728388 Folder_name=data_16
C -1.81023100 0.47121723 -0.19885482
C -1.10864708 -0.71441348 -0.86614831
C 0.20155449 -1.20479819 -0.19498794
C 0.90121790 -0.21011289 0.73471037
H -1.17686483 1.37148140 -0.19033646
H -2.09025096 0.25478216 0.84587591
H -2.73654857 0.72561839 -0.73854210
H -0.88515354 -0.42207395 -1.90786169
H -1.81116586 -1.56062818 -0.94668314
H -0.02139076 -2.11005079 0.39779853
H 0.90511183 -1.53602853 -0.97687244
H 1.82793500 -0.64672106 1.14045072
H 0.26709391 0.06853340 1.59025215
H 1.18025278 0.72113633 0.21355116
14
Properties=species:S:1:pos:R:3 REF_energy=-0.06115368899122109 Folder_name=data_17
C -1.78743040 0.50188871 -0.23890418
C -1.13249917 -0.74054229 -0.84866812
C 0.21697392 -1.19521030 -0.22118609
C 0.86926390 -0.23119964 0.77362378
H -1.14329736 1.39092406 -0.32169615
H -2.02543306 0.36568689 0.82870012
H -2.73235618 0.73196871 -0.75682418
H -0.97735486 -0.54370055 -1.92373866
H -1.84882916 -1.57804827 -0.80950597
H 0.06284939 -2.15760421 0.29713423
H 0.93457344 -1.41481832 -1.02921538
H 1.81483707 -0.65120538 1.15254006
H 0.22428154 -0.03758723 1.64464014
H 1.10558161 0.74310276 0.31551959
14
Properties=species:S:1:pos:R:3 REF_energy=-0.06118564487932965 Folder_name=data_18
C -1.76246584 0.53354432 -0.28657568
C -1.14858630 -0.75995267 -0.82959528
C 0.23207833 -1.17888546 -0.24191575
C 0.83606652 -0.25474162 0.81934593
H -1.11987946 1.40838166 -0.47357338
H -1.94286228 0.48365660 0.79888840
H -2.73250924 0.73101276 -0.77039882
H -1.05900302 -0.66607495 -1.92507789
H -1.87042632 -1.57851799 -0.66897660
H 0.14673762 -2.19055334 0.18960282
H 0.95809159 -1.27807259 -1.06655141
H 1.80711279 -0.64670393 1.16222438
H 0.18933012 -0.16256222 1.70619969
H 1.01196020 0.76170657 0.43309859
14
Properties=species:S:1:pos:R:3 REF_energy=-0.0611528217518299 Folder_name=data_19
C -1.74315219 0.56047806 -0.34178458
C -1.16802059 -0.77875404 -0.81086394
C 0.23828113 -1.16136257 -0.26561641
C 0.79878147 -0.28517329 0.85804563
H -1.10617998 1.41200007 -0.63189747
H -1.86391320 0.59739247 0.75192415
H -2.73652404 0.72969751 -0.78747451
H -1.14345907 -0.79109572 -1.91326651
H -1.88618886 -1.56849702 -0.52941774
H 0.22077959 -2.21046011 0.07371637
H 0.96156793 -1.13984049 -1.09932745
H 1.79341598 -0.64512696 1.16662401
H 0.15630562 -0.29454653 1.75366301
H 0.91242080 0.76435571 0.54544077
14
Properties=species:S:1:pos:R:3 REF_energy=-0.061074005326839376 Folder_name=data_20
C -1.72219364 0.57616066 -0.39409635
C -1.17813928 -0.79922824 -0.78808607
C 0.25123328 -1.14199482 -0.29120197
C 0.77286537 -0.32409683 0.89286742
H -1.09139420 1.39754845 -0.77372549
H -1.79240987 0.69258764 0.69824677
H -2.73323917 0.72416546 -0.80625191
H -1.21485014 -0.90995476 -1.88467566
H -1.88053909 -1.55668512 -0.39625524
H 0.30013044 -2.21632590 -0.04718989
H 0.95999620 -1.00172396 -1.12705352
H 1.78573643 -0.65433678 1.17403752
H 0.13477013 -0.43145500 1.78618219
H 0.83111073 0.74947908 0.65672657
14
Properties=species:S:1:pos:R:3 REF_energy=-0.06097969935289416 Folder_name=data_21
C -1.69693564 0.57591135 -0.43877193
C -1.17498421 -0.82756423 -0.75386608
C 0.27602599 -1.12373723 -0.31130507
C 0.76446059 -0.36991468 0.92750686
H -1.07146156 1.36207830 -0.89548704
H -1.72810690 0.76749134 0.64481199
H -2.72046527 0.70611290 -0.82525936
H -1.26843028 -1.02786313 -1.83457195
H -1.85012931 -1.55198949 -0.26232931
H 0.38942416 -2.21012226 -0.15737887
H 0.95848820 -0.87315668 -1.14417206
H 1.79068171 -0.67432561 1.18854791
H 0.12986193 -0.56694439 1.80860045
H 0.77583213 0.71898974 0.76633002
14
Properties=species:S:1:pos:R:3 REF_energy=-0.06090440580920664 Folder_name=data_22
C -1.62673142 0.46196430 -0.39074048
C -1.10188402 -0.94735956 -0.67110274
C 0.38568867 -1.17644576 -0.34320902
C 0.88426904 -0.51516048 0.94304373
H -1.04154780 1.23040364 -0.92518582
H -1.59026967 0.70667520 0.68204669
H -2.67481256 0.56245863 -0.71520664
H -1.27882967 -1.21018103 -1.72807395
H -1.70898572 -1.66068069 -0.08298898
H 0.57980282 -2.26205581 -0.30648351
H 0.99697384 -0.79457362 -1.18213079
H 1.93456749 -0.78288908 1.14061660
H 0.29352945 -0.83026447 1.82071717
H 0.83048735 0.58301245 0.88644231
14
Properties=species:S:1:pos:R:3 REF_energy=-0.06086629750913031 Folder_name=data_23
C -1.61807356 0.47148021 -0.39977872
C -1.10827195 -0.95328575 -0.62310413
C 0.39706808 -1.14833755 -0.38455759
C 0.91761344 -0.59527885 0.94322467
H -1.06365656 1.20040140 -1.01610078
H -1.51671446 0.78374984 0.65138626
H -2.68378191 0.55716886 -0.66570648
H -1.34925459 -1.27657341 -1.65066366
H -1.66719164 -1.63626395 0.04373247
H 0.63054274 -2.22491656 -0.45490088
H 0.95483764 -0.66718778 -1.20974575
H 1.98208336 -0.84154312 1.08483028
H 0.36390993 -1.01532335 1.80086339
H 0.82528707 0.50081218 0.99600582
14
Properties=species:S:1:pos:R:3 REF_energy=-0.06087108429576127 Folder_name=data_24
C -1.56320001 0.49681156 -0.40834841
C -1.08599843 -0.94894834 -0.55614976
C 0.42654380 -1.14381291 -0.38449692
C 0.97428921 -0.71471352 0.97777406
H -1.04316939 1.16371990 -1.11740415
H -1.38329755 0.88868279 0.60537589
H -2.64393216 0.58229358 -0.60464615
H -1.38080434 -1.32917291 -1.54995254
H -1.61644860 -1.58397137 0.17771136
H 0.66722506 -2.20795188 -0.55421634
H 0.95391061 -0.58604065 -1.18073241
H 2.04962059 -0.93848551 1.06377614
H 0.45884473 -1.24105307 1.79951174
H 0.85084634 0.36632838 1.14995168
14
Properties=species:S:1:pos:R:3 REF_energy=-0.06090608831126909 Folder_name=data_25
C -1.52331614 0.50664357 -0.45416236
C -1.07480794 -0.95438560 -0.52090578
C 0.44189023 -1.15480717 -0.39706476
C 1.00342573 -0.86111877 0.99529067
H -1.04792635 1.10339752 -1.25101082
H -1.26152306 0.97506738 0.50851353
H -2.61447651 0.59826428 -0.57607106
H -1.41289301 -1.38727398 -1.47884826
H -1.58345252 -1.53741036 0.26886692
H 0.68526470 -2.19765774 -0.66645797
H 0.95344454 -0.52320867 -1.14659426
H 2.08840692 -1.04767976 1.03881464
H 0.52501264 -1.49903809 1.75769777
H 0.83983625 0.18720667 1.29348122
14
Properties=species:S:1:pos:R:3 REF_energy=-0.06095988134665742 Folder_name=data_26
C -1.67881293 0.44626516 -0.52959195
C -1.18908941 -1.00297200 -0.50623854
C 0.33762598 -1.14176765 -0.39742380
C 0.87572010 -0.96687417 1.02409464
H -1.26558123 0.98841973 -1.39652297
H -1.37614774 0.99617519 0.37710397
H -2.77737165 0.50153499 -0.59444047
H -1.53113832 -1.50370630 -1.42890949
H -1.66624839 -1.55068749 0.32674424
H 0.63557408 -2.13939800 -0.76489348
H 0.81984604 -0.41557570 -1.07692246
H 1.97287209 -1.06344109 1.05646139
H 0.45354960 -1.72744643 1.70203419
H 0.62155734 0.02223399 1.44024068
14
Properties=species:S:1:pos:R:3 REF_energy=-0.06102095278024655 Folder_name=data_27
C -1.65390921 0.42977664 -0.63320814
C -1.16502518 -1.01272929 -0.48904846
C 0.36682428 -1.13743521 -0.39206913
C 0.89680138 -1.07421738 1.04171396
H -1.26768433 0.88521808 -1.56010972
H -1.31739363 1.05991886 0.20760074
H -2.75392126 0.48613124 -0.66620493
H -1.52415238 -1.58986478 -1.35890820
H -1.62956493 -1.48575158 0.39459835
H 0.68425545 -2.09618592 -0.83787190
H 0.83969090 -0.35156052 -1.00784631
H 1.99668771 -1.13397034 1.07283257
H 0.49938516 -1.90714298 1.64507848
H 0.60410886 -0.13610706 1.54328585
14
Properties=species:S:1:pos:R:3 REF_energy=-0.06108622731808955 Folder_name=data_28
C -1.67095047 0.42522990 -0.71779050
C -1.16634899 -0.99439497 -0.45262842
C 0.37207225 -1.09716346 -0.37288971
C 0.90796907 -1.14254721 1.05925051
H -1.30563906 0.79879321 -1.68874003
H -1.32255812 1.12935972 0.05721114
H -2.77189502 0.47135961 -0.73456662
H -1.53999497 -1.65244952 -1.25606365
H -1.61146788 -1.38454601 0.47976700
H 0.71003717 -2.00598793 -0.90011975
H 0.82754312 -0.25218091 -0.91902347
H 2.00910118 -1.18058850 1.08273112
H 0.53113917 -2.03035200 1.59360864
H 0.59566104 -0.25494908 1.63583962
14
Properties=species:S:1:pos:R:3 REF_energy=-0.06113613255746597 Folder_name=data_29
C -1.70851379 0.42941098 -0.78765376
C -1.18466096 -0.95733900 -0.41057391
C 0.35886969 -1.04069716 -0.34711565
C 0.90586623 -1.20318408 1.07203623
H -1.35795984 0.72747178 -1.78988056
H -1.35922274 1.19698335 -0.07596320
H -2.81010684 0.46195617 -0.79616836
H -1.56978747 -1.69124061 -1.13902218
H -1.61022035 -1.25917517 0.56278373
H 0.71399477 -1.88522178 -0.96212544
H 0.79600438 -0.13760158 -0.80859177
H 2.00755327 -1.23084365 1.08494967
H 0.54303789 -2.13693080 1.53317413
H 0.58703538 -0.37047877 1.72215126
14
Properties=species:S:1:pos:R:3 REF_energy=-0.061158755637719664 Folder_name=data_30
C -1.73923545 0.42962206 -0.85078273
C -1.19505124 -0.91463245 -0.36516372
C 0.35107691 -0.98144265 -0.32109731
C 0.91528183 -1.26007857 1.07283984
H -1.39655345 0.65347422 -1.87507806
H -1.39781804 1.25473196 -0.20281076
H -2.84120786 0.44573679 -0.85759746
H -1.58953709 -1.71885517 -1.00949001
H -1.59903848 -1.12235742 0.64160675
H 0.71577284 -1.75345223 -1.02006119
H 0.76924751 -0.02935436 -0.69340225
H 2.01702296 -1.28864039 1.06939459
H 0.55823289 -2.22824070 1.46260315
H 0.60423113 -0.48234853 1.79091329
14
Properties=species:S:1:pos:R:3 REF_energy=-0.06114797024194052 Folder_name=data_31
C -1.77258440 0.42329393 -0.91162313
C -1.20477314 -0.86729430 -0.31994605
C 0.34075576 -0.91630873 -0.29866981
C 0.92671413 -1.30567810 1.05899684
H -1.44271397 0.56771283 -1.95451017
H -1.43724896 1.30288247 -0.33664934
H -2.87465724 0.42286125 -0.90929912
H -1.60443457 -1.73620453 -0.87055936
H -1.58452897 -0.97606683 0.71191236
H 0.70915533 -1.60872852 -1.07503624
H 0.73813127 0.07548163 -0.58010039
H 2.02830325 -1.32928771 1.03629750
H 0.57957737 -2.30371804 1.37634725
H 0.62357851 -0.58897041 1.84076112
14
Properties=species:S:1:pos:R:3 REF_energy=-0.06111404757975436 Folder_name=data_32
C -1.78613037 0.40260761 -0.96804682
C -1.20244496 -0.82743000 -0.27254942
C 0.34008147 -0.86334625 -0.26460616
C 0.93754907 -1.36377664 1.05067081
H -1.45835911 0.46651496 -2.01978649
H -1.46151016 1.32964950 -0.46653981
H -2.88803728 0.38838016 -0.96510765
H -1.60053465 -1.74838958 -0.73289570
H -1.56606089 -0.84049745 0.77106460
H 0.70917836 -1.47497181 -1.10617571
H 0.72268609 0.15623728 -0.45320979
H 2.03873519 -1.38758449 1.01550430
H 0.59154704 -2.38385409 1.29023998
H 0.64299574 -0.71202746 1.89016550
14
Properties=species:S:1:pos:R:3 REF_energy=-0.06106296696689939 Folder_name=data_33
C -1.75407311 0.32776802 -1.10203428
C -1.19570134 -0.82707740 -0.27118131
C 0.34152537 -0.87208027 -0.23049861
C 0.90377087 -1.46675616 1.06021803
H -1.40351478 0.28127356 -2.14722686
H -1.43249904 1.29920876 -0.69132840
H -2.85573905 0.32049434 -1.12212932
H -1.59010997 -1.79027865 -0.63929399
H -1.57535808 -0.72743679 0.76201313
H 0.72455579 -1.42455204 -1.10621632
H 0.72980014 0.15721704 -0.33702376
H 2.00512394 -1.49884317 1.04877522
H 0.54413422 -2.49735068 1.22154820
H 0.59463151 -0.87096987 1.93501295
14
Properties=species:S:1:pos:R:3 REF_energy=-0.06103263609523035 Folder_name=data_34
C -1.75502871 0.27674621 -1.17014047
C -1.19041351 -0.78600033 -0.22813130
C 0.34311764 -0.81613176 -0.18496140
C 0.90642900 -1.49882453 1.06094262
H -1.40320650 0.12735755 -2.20527742
H -1.44057310 1.28713967 -0.85964984
H -2.85657405 0.26045889 -1.18943790
H -1.57414704 -1.78477776 -0.50337191
H -1.57104075 -0.59259955 0.79185815
H 0.73117699 -1.30338098 -1.09740489
H 0.72027997 0.22271115 -0.21998709
H 2.00807442 -1.51736120 1.05264625
H 0.55803667 -2.54267957 1.14219690
H 0.58727999 -0.97446881 1.97711842
14
Properties=species:S:1:pos:R:3 REF_energy=-0.06100788141941593 Folder_name=data_35
C -1.75420016 0.24224617 -1.21180480
C -1.18427369 -0.73269411 -0.18237188
C 0.34688967 -0.75469342 -0.14384840
C 0.91571725 -1.53861492 1.03812639
H -1.40743277 -0.00052744 -2.23065971
H -1.43903428 1.27689326 -0.99607084
H -2.85574495 0.22456687 -1.22346072
H -1.56078964 -1.75321043 -0.37836059
H -1.56342562 -0.46260382 0.82064494
H 0.73161888 -1.16926225 -1.09345197
H 0.71856728 0.28585553 -0.10061783
H 2.01740323 -1.54619839 1.02963974
H 0.57632845 -2.58832802 1.02516944
H 0.59208617 -1.10125729 1.99747523
14
Properties=species:S:1:pos:R:3 REF_energy=-0.060998751380160754 Folder_name=data_36
C -1.75538702 0.20442342 -1.24520049
C -1.18305431 -0.67746333 -0.13634958
C 0.34723254 -0.69621298 -0.10050911
C 0.91956766 -1.57794180 1.00846605
H -1.42091240 -0.13622123 -2.23961885
H -1.42977299 1.25212863 -1.13087352
H -2.85708267 0.19656631 -1.24417014
H -1.55468453 -1.71183375 -0.25590799
H -1.56355755 -0.33495572 0.84356490
H 0.72772806 -1.03877091 -1.08040858
H 0.71886883 0.33816166 0.01899585
H 2.02126394 -1.57018173 1.00735384
H 0.59385412 -2.62563975 0.89435780
H 0.58519508 -1.23708253 2.00284529
