31
Properties=species:S:1:pos:R:3 REF_energy=-0.10354716545425724
O -1.23470000 -2.22080000 -0.24480000
O 3.13320000 1.11950000 0.15450000
N -3.40340000 2.16340000 -0.37800000
C -1.61100000 0.54930000 -0.83180000
C -2.13090000 1.63760000 0.12510000
C -0.27850000 -0.03020000 -0.42160000
C -0.16300000 -1.38490000 -0.15040000
C -2.35430000 1.11310000 1.54350000
C 0.81420000 0.81800000 -0.32360000
C 2.05230000 0.29850000 0.05490000
C 1.07530000 -1.90420000 0.22800000
C 2.18280000 -1.06240000 0.33070000
C -1.01130000 -3.59710000 0.05500000
C 2.92940000 2.50030000 -0.14170000
H -1.49200000 0.96940000 -1.84050000
H -2.37120000 -0.23540000 -0.93280000
H -1.42350000 2.47320000 0.17290000
H -1.41430000 0.78910000 2.00170000
H -3.04560000 0.26270000 1.55220000
H -2.77300000 1.89330000 2.18960000
H 0.66410000 1.86400000 -0.56480000
H -3.26400000 2.56870000 -1.30270000
H -3.72330000 2.92220000 0.22260000
H 1.25240000 -2.94920000 0.45760000
H 3.14530000 -1.47160000 0.62590000
H -0.70980000 -3.73940000 1.09840000
H -0.30870000 -4.05530000 -0.64940000
H -1.96880000 -4.11330000 -0.07130000
H 2.63510000 2.64880000 -1.18620000
H 3.89190000 3.00470000 -0.00690000
H 2.22600000 2.96320000 0.55880000
23
Properties=species:S:1:pos:R:3 REF_energy=-0.05574087751852419
O -2.51760000 2.16690000 0.17530000
O -4.01960000 0.00070000 -0.70600000
O 3.46150000 1.19600000 0.74480000
O 2.68130000 1.21510000 -1.41550000
N 2.66850000 -1.64210000 -0.72370000
C -0.13210000 -0.56390000 0.63810000
C 1.26440000 -0.77090000 1.11880000
C -0.68450000 0.71690000 0.63060000
C -0.88550000 -1.65090000 0.19490000
C -1.99020000 0.91080000 0.17980000
C -2.19140000 -1.45710000 -0.25560000
C -2.74370000 -0.17620000 -0.26320000
C 2.27310000 -0.65180000 0.00300000
C 2.81580000 0.70650000 -0.32150000
H 1.36520000 -1.76640000 1.56940000
H 1.50630000 -0.05870000 1.91620000
H -0.09590000 1.56400000 0.97500000
H -0.46630000 -2.65370000 0.19400000
H -2.76700000 -2.31270000 -0.59840000
H -1.85330000 2.79110000 0.51440000
H 3.34070000 -1.32830000 -1.43200000
H -4.38490000 -0.86060000 -0.97180000
H 3.84610000 2.08180000 0.57230000
28
Properties=species:S:1:pos:R:3 REF_energy=-0.08765423185278554
O 3.68580000 -1.89610000 0.48670000
O 4.15040000 1.64710000 0.39790000
N 3.51160000 -0.55910000 0.12980000
N -2.05470000 -0.83060000 -0.35770000
C 1.11810000 -0.13360000 -0.18350000
C 0.01030000 0.09960000 -1.21400000
C 2.46600000 -0.35930000 -0.86660000
C -1.33280000 0.28700000 -0.55610000
C -1.72920000 1.56030000 -0.20730000
C -3.25860000 -0.65630000 0.23230000
C -2.97360000 1.69910000 0.39740000
C -3.75910000 0.57460000 0.62490000
C -4.07450000 -1.88500000 0.46020000
C 4.24050000 0.45220000 0.65610000
H 1.18420000 0.72570000 0.49650000
H 0.87070000 -1.00100000 0.44200000
H 0.24580000 0.97000000 -1.83920000
H -0.04760000 -0.75930000 -1.89490000
H 2.43730000 -1.23220000 -1.52810000
H 2.72130000 0.52150000 -1.46690000
H -1.10680000 2.42950000 -0.38830000
H -3.33030000 2.68170000 0.69110000
H -4.73160000 0.67020000 1.09580000
H -5.02670000 -1.81430000 -0.07500000
H -3.55090000 -2.77720000 0.10120000
H -4.27300000 -2.01740000 1.52850000
H 4.97620000 0.08590000 1.39090000
H 3.02870000 -1.97960000 1.19850000
30
Properties=species:S:1:pos:R:3 REF_energy=-0.09447758774968995
N 0.24430000 1.59760000 0.00790000
N 0.36400000 -2.63670000 0.07200000
C 1.46880000 -0.49050000 0.05100000
C -0.91810000 -0.54650000 -0.00260000
C 2.88470000 -0.95290000 0.12600000
C 1.38700000 0.89420000 0.03450000
C -0.89980000 0.86230000 -0.00600000
C -2.20540000 -1.32750000 0.02520000
C 3.63110000 0.31750000 -0.31340000
C 2.75530000 1.50910000 0.10180000
C -3.42320000 -0.49970000 -0.38160000
C -2.18070000 1.65200000 -0.08440000
C 0.30460000 -1.22880000 0.04370000
C -3.41260000 0.84970000 0.32600000
H 3.14150000 -1.22580000 1.15470000
H 3.10010000 -1.78500000 -0.54990000
H -2.15420000 -2.18310000 -0.65780000
H -2.35410000 -1.71220000 1.04200000
H 4.64070000 0.37480000 0.10510000
H 3.73480000 0.31280000 -1.40760000
H 2.86490000 2.35490000 -0.58190000
H 2.97190000 1.82280000 1.12780000
H -3.42220000 -0.34300000 -1.46800000
H -4.33990000 -1.04840000 -0.13770000
H -2.10240000 2.54290000 0.54960000
H -2.29870000 1.99660000 -1.11920000
H -3.41560000 0.69600000 1.41250000
H -4.31870000 1.41360000 0.07760000
H 1.26050000 -3.10090000 0.13380000
H -0.47530000 -3.19300000 0.15060000
32
Properties=species:S:1:pos:R:3 REF_energy=-0.11258206034420581
O 6.81320000 0.75890000 0.14980000
O -6.81920000 -0.73230000 -0.02410000
O 5.83090000 -1.29530000 0.10010000
O -5.85710000 1.32110000 0.08560000
C 0.68100000 -0.41610000 -0.11950000
C -0.66040000 0.32580000 -0.10790000
C 1.89000000 0.52140000 -0.16560000
C -1.90750000 -0.55930000 -0.00850000
C 3.23350000 -0.21480000 -0.09880000
C -3.21460000 0.23750000 0.05940000
C 4.46010000 0.69320000 -0.05750000
C -4.44790000 -0.66720000 0.06500000
C 5.74820000 -0.07580000 0.06930000
C -5.75010000 0.10310000 0.05260000
H 0.71190000 -1.09230000 -0.98240000
H 0.74590000 -1.04380000 0.77770000
H -0.66390000 1.02640000 0.73690000
H -0.73270000 0.93700000 -1.01640000
H 1.85210000 1.12020000 -1.08360000
H 1.82980000 1.22470000 0.67420000
H -1.82810000 -1.19550000 0.88150000
H -1.93370000 -1.23000000 -0.87610000
H 3.31220000 -0.88990000 -0.96070000
H 3.23770000 -0.85780000 0.79110000
H -3.21550000 0.86760000 0.95730000
H -3.26840000 0.91870000 -0.79910000
H 4.50530000 1.29010000 -0.97490000
H 4.38320000 1.36940000 0.80120000
H -4.43650000 -1.29990000 0.95940000
H -4.43200000 -1.30960000 -0.82280000
H 7.65810000 0.26770000 0.23460000
H -7.66730000 -0.23950000 -0.04270000
29
Properties=species:S:1:pos:R:3 REF_energy=-0.09370124916674438
O 1.22950000 0.11880000 -0.01910000
O 0.44650000 2.25710000 -0.35610000
N -4.88410000 -1.25690000 0.16790000
C 3.51010000 -0.60060000 0.10360000
C 4.97360000 -0.17100000 0.05980000
C 2.57110000 0.58240000 -0.08510000
C 5.90720000 -1.34830000 0.29170000
C -1.08960000 0.45450000 -0.08070000
C 0.26100000 1.06440000 -0.17100000
C -2.13290000 1.21360000 0.40870000
C -1.26040000 -0.85220000 -0.49020000
C -3.60040000 -0.67810000 0.08480000
C -3.40210000 0.64100000 0.49240000
C -2.52960000 -1.42470000 -0.40650000
H 3.31060000 -1.35170000 -0.67090000
H 3.28660000 -1.09020000 1.05990000
H 5.16180000 0.59080000 0.82540000
H 5.19940000 0.28310000 -0.91210000
H 2.73910000 1.32460000 0.70420000
H 2.74860000 1.05010000 -1.06070000
H 5.72950000 -1.80300000 1.27140000
H 5.76660000 -2.11710000 -0.47490000
H 6.95000000 -1.01810000 0.25460000
H -1.99020000 2.24040000 0.73200000
H -0.44630000 -1.45010000 -0.88900000
H -4.22850000 1.23300000 0.87740000
H -2.67230000 -2.45260000 -0.73040000
H -5.02760000 -2.21410000 -0.12530000
H -5.66040000 -0.71690000 0.52620000
26
Properties=species:S:1:pos:R:3 REF_energy=-0.07389820691648286
O 0.80720000 0.17860000 0.30860000
N 3.80780000 0.76890000 -0.62860000
N -2.95180000 1.76840000 0.17700000
C 1.97040000 -0.52370000 0.31340000
C 3.19460000 0.24630000 0.57600000
C -0.18050000 -0.71520000 0.04870000
C 1.73250000 -1.85460000 0.05960000
C 0.33310000 -1.97770000 -0.11260000
C -1.50990000 -0.16390000 0.00030000
C -2.61190000 -0.97190000 -0.25680000
C -1.73140000 1.18790000 0.20830000
C 5.02290000 1.51630000 -0.32130000
C -3.88380000 -0.41110000 -0.29720000
C -3.99910000 0.95170000 -0.07560000
H 2.95760000 1.06730000 1.26510000
H 3.90580000 -0.40560000 1.09930000
H 2.47310000 -2.63960000 0.00430000
H -0.21570000 -2.88380000 -0.32730000
H 3.15260000 1.38770000 -1.10650000
H -2.50990000 -2.03980000 -0.42900000
H -0.92680000 1.88730000 0.41460000
H 5.46430000 1.88990000 -1.25040000
H 4.81300000 2.37680000 0.32220000
H 5.76840000 0.87790000 0.16390000
H -4.75740000 -1.02140000 -0.49580000
H -4.96900000 1.43760000 -0.09630000
23
Properties=species:S:1:pos:R:3 REF_energy=-0.05168800031004572
O 0.61020000 1.75720000 -0.00880000
N -0.17750000 -0.45540000 -0.02150000
N 3.23880000 0.87730000 -0.00260000
N 4.40160000 0.20380000 0.01220000
C -1.56230000 -0.28550000 -0.00930000
C 2.19370000 0.05390000 -0.00520000
C 0.79030000 0.54430000 -0.02050000
C -2.10720000 0.99850000 0.00580000
C -2.40190000 -1.39940000 -0.01160000
C 2.61130000 -1.21490000 0.00740000
C -3.49150000 1.16850000 0.01850000
C -3.78630000 -1.22920000 0.00120000
C -4.33120000 0.05470000 0.01620000
C 4.01200000 -1.07380000 0.01830000
H 0.12480000 -1.42500000 -0.02990000
H -1.53150000 1.91260000 0.00850000
H -1.99140000 -2.40600000 -0.02310000
H 2.05350000 -2.13900000 0.00980000
H 3.26740000 1.89010000 -0.00980000
H -3.91730000 2.16780000 0.03020000
H -4.44010000 -2.09640000 -0.00050000
H -5.40910000 0.18710000 0.02600000
H 4.76500000 -1.84880000 0.03050000
24
Properties=species:S:1:pos:R:3 REF_energy=-0.0553898765664278
O -1.29330000 -1.26660000 1.34830000
O 0.23390000 -3.12490000 -0.10970000
O 2.59970000 -1.37970000 -0.46020000
O -3.57680000 0.45140000 -0.37820000
N 0.05770000 1.03720000 -0.13460000
N 0.21750000 2.36720000 -0.17850000
N 2.15080000 1.37300000 0.33220000
N 1.49390000 2.56710000 0.12720000
C -1.19140000 0.37000000 -0.47390000
C -1.13570000 -1.12260000 -0.06500000
C 0.21120000 -1.74550000 -0.47350000
C 1.39120000 -1.04370000 0.21420000
C 1.25200000 0.43020000 0.14350000
C -2.41070000 1.08710000 0.10830000
H -1.24410000 0.41040000 -1.57080000
H -1.95440000 -1.68360000 -0.52860000
H 0.32300000 -1.70250000 -1.56450000
H 1.49990000 -1.36920000 1.25410000
H -2.44750000 2.13100000 -0.22000000
H -2.42140000 1.08770000 1.20360000
H -0.68260000 -0.65940000 1.79760000
H -0.51670000 -3.55640000 -0.55240000
H 2.50340000 -1.14630000 -1.39970000
H -3.68570000 -0.38350000 0.10750000
22
Properties=species:S:1:pos:R:3 REF_energy=-0.04304871488895867
N 1.36760000 1.53640000 -0.00020000
N -1.36750000 1.53650000 0.00000000
C 0.69670000 0.36590000 -0.00010000
C -0.69670000 0.36600000 -0.00010000
C 1.39240000 -0.86410000 -0.00010000
C -1.39230000 -0.86400000 -0.00010000
C 0.69380000 -2.07490000 0.00000000
C -0.69380000 -2.07480000 0.00000000
C 2.79380000 -0.84350000 0.00000000
C -2.79380000 -0.84350000 0.00000000
C 3.47490000 0.36350000 0.00020000
C -3.47490000 0.36350000 0.00010000
C 2.72020000 1.51650000 0.00010000
C -2.72020000 1.51640000 0.00010000
H 1.22240000 -3.02530000 0.00010000
H -1.22260000 -3.02520000 0.00000000
H 3.36360000 -1.77010000 0.00020000
H -3.36360000 -1.77010000 0.00010000
H 4.55780000 0.39800000 0.00040000
H -4.55780000 0.39790000 0.00010000
H 3.19410000 2.49250000 0.00010000
H -3.19430000 2.49240000 0.00010000
23
Properties=species:S:1:pos:R:3 REF_energy=-0.053847606988639996
O -0.55880000 -2.77840000 0.00010000
O -2.96520000 -1.37600000 0.00010000
O -2.85700000 1.34710000 0.00020000
N -0.52870000 1.42240000 -0.00020000
C 0.71060000 0.70170000 0.00000000
C 0.68980000 -0.70450000 -0.00020000
C -0.60060000 -1.39910000 -0.00010000
C -1.76630000 0.77380000 -0.00010000
C -1.75140000 -0.71670000 0.00000000
C 1.95200000 1.36280000 0.00030000
C 1.90280000 -1.41570000 -0.00020000
C -0.49960000 2.88320000 -0.00020000
C 3.14830000 0.64380000 0.00030000
C 3.12410000 -0.74450000 -0.00010000
H 2.02320000 2.44670000 0.00050000
H 1.91750000 -2.50310000 -0.00040000
H 0.01170000 3.23800000 -0.90050000
H 0.01110000 3.23800000 0.90040000
H -1.50950000 3.30330000 -0.00060000
H 4.09780000 1.17120000 0.00040000
H 4.05350000 -1.30600000 -0.00010000
H -1.47580000 -3.10410000 0.00020000
H -3.66410000 -0.69930000 0.00010000
38
Properties=species:S:1:pos:R:3 REF_energy=-0.15042364544250253
O 1.18310000 -0.04900000 0.09690000
O 3.61120000 -0.85030000 1.27940000
O 5.99240000 0.02860000 0.10420000
C -1.24010000 0.01320000 0.24190000
C -2.51100000 -0.40900000 -0.52520000
C -1.26250000 1.46960000 0.75760000
C -0.01230000 -0.28210000 -0.63520000
C -3.78940000 -0.33050000 0.31570000
C -5.04160000 -0.76750000 -0.44950000
C -1.40500000 2.53550000 -0.32020000
C 2.33690000 -0.32360000 -0.68640000
C 3.59410000 -0.01550000 0.11900000
C -6.31060000 -0.71650000 0.38740000
C 4.85500000 -0.30280000 -0.68550000
H -1.15710000 -0.62270000 1.13470000
H -2.62740000 0.19890000 -1.43030000
H -2.39230000 -1.44570000 -0.86690000
H -0.33970000 1.66670000 1.31740000
H -2.07450000 1.59110000 1.48340000
H -0.02250000 0.33590000 -1.54020000
H -0.03130000 -1.33410000 -0.94630000
H -3.67370000 -0.95700000 1.20850000
H -3.94590000 0.69640000 0.66340000
H -4.90330000 -1.79080000 -0.81810000
H -5.17110000 -0.12700000 -1.33010000
H -2.34500000 2.43050000 -0.86910000
H -0.57730000 2.50230000 -1.03400000
H -1.40260000 3.52940000 0.13960000
H 2.32280000 -1.38400000 -0.96630000
H 2.31820000 0.28720000 -1.59650000
H 3.57830000 1.01950000 0.47820000
H -6.23080000 -1.37580000 1.25750000
H -6.50250000 0.30060000 0.74350000
H -7.17140000 -1.03830000 -0.20690000
H 4.92650000 -1.36570000 -0.93930000
H 4.88220000 0.29360000 -1.60270000
H 4.42430000 -0.64640000 1.77250000
H 6.77870000 -0.16500000 -0.43420000
28
Properties=species:S:1:pos:R:3 REF_energy=-0.08864210989729271
O 1.22630000 0.11860000 -0.01940000
O 0.44040000 2.25590000 -0.35680000
O -4.84110000 -1.24310000 0.16690000
C 3.50780000 -0.59760000 0.10350000
C 4.97080000 -0.16610000 0.05960000
C 2.56720000 0.58400000 -0.08550000
C 5.90590000 -1.34210000 0.29160000
C -1.09330000 0.45130000 -0.08110000
C 0.25650000 1.06290000 -0.17140000
C -2.13710000 1.20970000 0.40830000
C -1.26300000 -0.85590000 -0.48960000
C -3.40570000 0.63590000 0.49290000
C -2.53160000 -1.42960000 -0.40510000
C -3.60300000 -0.68380000 0.08620000
H 3.30930000 -1.34930000 -0.67090000
H 3.28500000 -1.08740000 1.05990000
H 5.15790000 0.59610000 0.82500000
H 5.19600000 0.28810000 -0.91240000
H 2.73420000 1.32660000 0.70370000
H 2.74410000 1.05180000 -1.06120000
H 5.72880000 -1.79690000 1.27160000
H 5.76630000 -2.11120000 -0.47470000
H 6.94830000 -1.01050000 0.25450000
H -1.99550000 2.23690000 0.73100000
H -0.44850000 -1.45320000 -0.88820000
H -4.23650000 1.22170000 0.87690000
H -2.67300000 -2.45750000 -0.72820000
H -4.79460000 -2.15940000 -0.15610000
20
Properties=species:S:1:pos:R:3 REF_energy=-0.04004543987128972
O 2.95620000 -1.29270000 0.00110000
O -1.88010000 -1.15120000 0.00000000
O -4.16390000 -0.97750000 -0.00020000
C 1.88190000 0.69510000 -0.00070000
C -0.53240000 0.87780000 -0.00050000
C 1.73430000 -0.68890000 -0.00040000
C -0.61690000 -0.51440000 -0.00070000
C 0.72590000 1.50030000 -0.00090000
C 0.50650000 -1.34610000 -0.00100000
C 3.28190000 0.93330000 0.00000000
C -1.76270000 1.65370000 0.00060000
C 3.88600000 -0.30240000 0.00110000
C -2.94890000 1.04100000 0.00110000
C -3.06780000 -0.42800000 0.00060000
H 0.81550000 2.58330000 -0.00070000
H 0.43190000 -2.42660000 -0.00060000
H 3.78750000 1.88860000 0.00010000
H -1.70070000 2.73650000 0.00090000
H 4.91550000 -0.62960000 0.00220000
H -3.86820000 1.61640000 0.00180000
31
Properties=species:S:1:pos:R:3 REF_energy=-0.10711516723414416
N -2.07590000 -0.11010000 -0.24160000
C -0.71170000 0.14610000 0.23010000
C 0.29830000 -0.40490000 -0.79290000
C -0.55540000 1.65000000 0.45580000
C 1.73880000 -0.22500000 -0.37750000
C -3.05000000 0.39420000 0.72370000
C -2.27320000 -1.53960000 -0.47200000
C 2.41210000 0.92940000 -0.74420000
C 2.36140000 -1.21760000 0.36250000
C 3.74270000 1.09570000 -0.36060000
C 3.69210000 -1.05120000 0.74600000
C 4.38290000 0.10540000 0.38460000
C -4.41930000 0.19440000 0.23900000
C -5.54260000 0.03310000 -0.15300000
H -0.53880000 -0.35580000 1.19320000
H 0.14390000 0.06700000 -1.77340000
H 0.17610000 -1.48020000 -0.96150000
H -1.12260000 2.01420000 1.31800000
H -0.84220000 2.22930000 -0.42930000
H 0.47530000 1.91710000 0.70280000
H -2.92800000 -0.08140000 1.70510000
H -2.97230000 1.47550000 0.86670000
H -1.74860000 -1.88060000 -1.37010000
H -3.31500000 -1.80020000 -0.68640000
H -1.95760000 -2.14920000 0.38330000
H 1.92730000 1.70380000 -1.33170000
H 1.83170000 -2.12060000 0.65190000
H 4.28110000 1.99550000 -0.64370000
H 4.19030000 -1.82190000 1.32680000
H 5.41910000 0.23480000 0.68310000
H -6.53880000 -0.11050000 -0.50100000
24
Properties=species:S:1:pos:R:3 REF_energy=-0.05521935342884943
O 1.13860000 1.25240000 -1.84290000
O 1.18560000 1.23030000 1.80980000
O -1.32950000 2.30220000 -0.59300000
O 3.07390000 -1.57510000 0.12040000
N -0.50540000 -0.84700000 -0.22700000
N -1.21160000 -1.97370000 -0.39370000
N -2.51540000 -0.35090000 0.41410000
N -2.43920000 -1.66590000 0.00750000
C 0.91720000 -0.76390000 -0.51080000
C 1.38870000 0.71110000 -0.54280000
C 0.71490000 1.60540000 0.51810000
C -0.82190000 1.52760000 0.48810000
C -1.30670000 0.14640000 0.25550000
C 1.71070000 -1.59890000 0.49670000
H 1.04910000 -1.19060000 -1.51440000
H 2.47480000 0.75860000 -0.40880000
H 1.02060000 2.64450000 0.34260000
H -1.24310000 1.92010000 1.42040000
H 1.37680000 -2.64240000 0.50510000
H 1.62050000 -1.22270000 1.51920000
H 0.18240000 1.20790000 -2.01150000
H 0.79340000 1.84260000 2.45520000
H -2.29840000 2.33000000 -0.51080000
H 3.14350000 -1.96450000 -0.76790000
28
Properties=species:S:1:pos:R:3 REF_energy=-0.08840381900646177
O -3.02250000 0.31670000 0.85460000
O 3.02270000 -0.31690000 0.85420000
N -1.39230000 -0.98430000 -0.23120000
N -1.05740000 1.24200000 -0.05120000
N 1.05770000 -1.24210000 -0.05190000
N 1.39280000 0.98410000 -0.23210000
C -0.08400000 -0.76730000 -0.82180000
C 0.08390000 0.76740000 -0.82180000
C -1.95120000 0.20360000 0.27140000
C 1.95160000 -0.20380000 0.27050000
C -2.05790000 -2.27110000 -0.24000000
C -1.30160000 2.64370000 0.21840000
C 1.30080000 -2.64360000 0.21970000
C 2.05740000 2.27140000 -0.23860000
H -0.04310000 -1.18460000 -1.83380000
H 0.04240000 1.18490000 -1.83380000
H -3.08830000 -2.16510000 0.10950000
H -1.53180000 -2.96070000 0.42120000
H -2.06050000 -2.66200000 -1.26080000
H -2.32470000 2.78750000 0.57590000
H -1.15280000 3.21780000 -0.69960000
H -0.61130000 2.98210000 0.99340000
H 0.61130000 -2.97970000 0.99630000
H 2.32420000 -2.78800000 0.57590000
H 1.14970000 -3.21910000 -0.69710000
H 1.53340000 2.95790000 0.42740000
H 2.05600000 2.66630000 -1.25790000
H 3.08920000 2.16480000 0.10690000
23
Properties=species:S:1:pos:R:3 REF_energy=-0.053465111721842984
O 4.02360000 -0.50550000 -0.00040000
O 2.67870000 1.34150000 -0.00040000
N -0.05250000 0.66160000 0.00110000
N -0.52170000 -1.51100000 0.00040000
N 1.79160000 -0.83530000 0.00070000
C -1.42160000 0.58280000 0.00050000
C -1.68950000 -0.78330000 -0.00010000
C 0.43910000 -0.61410000 0.00130000
C -2.41820000 1.55930000 0.00030000
C -3.02530000 -1.21920000 -0.00090000
C -3.74200000 1.10770000 -0.00030000
C -4.04220000 -0.25640000 -0.00110000
C 2.80610000 0.12340000 -0.00010000
C 5.17370000 0.34840000 -0.00100000
H 0.49070000 1.51450000 0.00140000
H -2.18250000 2.61750000 0.00080000
H -3.26910000 -2.27670000 -0.00140000
H -4.55190000 1.83300000 -0.00030000
H -5.08100000 -0.57680000 -0.00160000
H 2.07560000 -1.81100000 0.00040000
H 5.18310000 0.96960000 -0.90170000
H 6.06570000 -0.28370000 -0.00120000
H 5.18380000 0.97010000 0.89930000
24
Properties=species:S:1:pos:R:3 REF_energy=-0.06476256963628657
O -3.79210000 -0.63930000 -0.34010000
O -2.89160000 1.98900000 -0.25990000
O 4.88620000 -1.05100000 -0.30180000
O 4.48790000 1.06540000 0.45110000
C 0.26320000 0.16660000 0.03840000
C -2.46340000 -0.36630000 -0.21510000
C -0.64790000 1.21920000 -0.04850000
C -2.01130000 0.95280000 -0.17530000
C -0.18900000 -1.15240000 -0.00140000
C -1.55220000 -1.41890000 -0.12810000
C 1.68470000 0.44390000 0.17140000
C 2.68020000 -0.42530000 -0.11200000
C -4.54380000 -0.76650000 0.86530000
C 4.08930000 -0.01710000 0.05600000
H -0.30760000 2.25220000 -0.02000000
H 0.48080000 -2.00320000 0.08280000
H -1.89830000 -2.44870000 -0.15500000
H 1.93510000 1.44430000 0.51870000
H 2.49960000 -1.42680000 -0.48580000
H -4.48490000 0.15100000 1.45930000
H -4.18240000 -1.61690000 1.45210000
H -5.58950000 -0.94430000 0.59960000
H -3.78550000 1.62610000 -0.38350000
H 5.83760000 -0.83120000 -0.20770000
28
Properties=species:S:1:pos:R:3 REF_energy=-0.0825262545614307
O -0.32570000 1.97840000 -0.99410000
O -1.18820000 -2.43630000 0.10740000
O 3.11980000 -0.89490000 0.21460000
N 1.42770000 0.65210000 -0.22830000
N 0.95310000 -1.62080000 0.21840000
C -0.89940000 -0.03270000 0.21170000
C -1.03770000 0.34120000 1.69870000
C -2.27510000 0.08090000 -0.46390000
C 0.07180000 0.96320000 -0.41960000
C -0.42240000 -1.47440000 0.14750000
C -1.54220000 1.75800000 1.85520000
C -2.21180000 -0.37380000 -1.90540000
C 1.92140000 -0.62680000 0.09430000
C 2.40860000 1.68600000 -0.53650000
H -0.07440000 0.25020000 2.21660000
H -1.72330000 -0.34900000 2.20690000
H -2.64920000 1.11030000 -0.47250000
H -3.02280000 -0.52260000 0.06630000
H -0.88030000 2.50750000 1.41440000
H -2.55510000 1.90030000 1.47080000
H -1.59400000 1.99430000 2.92500000
H -1.48140000 0.18880000 -2.49410000
H -1.98390000 -1.43750000 -2.01150000
H -3.18840000 -0.21750000 -2.37770000
H 1.29970000 -2.57110000 0.31750000
H 3.28010000 1.59270000 0.11810000
H 1.97640000 2.68390000 -0.42160000
H 2.73080000 1.55140000 -1.57380000
34
Properties=species:S:1:pos:R:3 REF_energy=-0.12273517354549046
N -0.80450000 -0.06960000 0.44780000
N 0.61590000 0.47900000 -2.59660000
C 0.58580000 0.00570000 -0.00030000
C 1.26990000 -1.34110000 0.30680000
C 1.28150000 1.15110000 0.76150000
C 2.78430000 -1.30320000 0.08280000
C 2.79590000 1.18110000 0.53660000
C -1.50140000 1.19520000 0.17560000
C -1.48990000 -1.20200000 -0.19090000
C 3.43950000 -0.16400000 0.85690000
C -2.94360000 1.15070000 0.68260000
C -2.93170000 -1.32500000 0.30440000
C -3.70460000 -0.02890000 0.08800000
C 0.60270000 0.27090000 -1.45530000
H 0.90760000 -2.15390000 -0.33380000
H 1.08460000 -1.63300000 1.34980000
H 1.09640000 1.05530000 1.84030000
H 0.92310000 2.14060000 0.45470000
H 3.00340000 -1.19320000 -0.98610000
H 3.22380000 -2.25730000 0.39640000
H 3.24320000 1.95870000 1.16670000
H 3.01590000 1.45440000 -0.50250000
H -1.53020000 1.44920000 -0.89100000
H -1.05080000 2.03840000 0.70600000
H -1.03680000 -2.16210000 0.07040000
H -1.51020000 -1.12710000 -1.28500000
H 3.35550000 -0.36010000 1.93300000
H 4.50940000 -0.12620000 0.62280000
H -3.45650000 2.08570000 0.42910000
H -2.94670000 1.07190000 1.77750000
H -2.93410000 -1.57670000 1.37280000
H -3.43600000 -2.14640000 -0.21760000
H -4.69870000 -0.10300000 0.54220000
H -3.85180000 0.13450000 -0.98660000
23
Properties=species:S:1:pos:R:3 REF_energy=-0.06175937133010123
O -3.82700000 0.22970000 -1.06430000
O 0.86860000 -2.20860000 0.08640000
O -3.47780000 -0.01670000 1.21290000
O 4.62490000 0.36340000 -0.63430000
N 0.74110000 0.09280000 0.45670000
N 2.73830000 -0.92620000 -0.27120000
N -5.23570000 0.15490000 -0.71190000
C -0.65980000 0.03740000 0.85740000
C -1.60580000 0.20850000 -0.32450000
C 1.39620000 -1.09440000 0.09480000
C 1.38890000 1.31090000 0.44300000
C 2.66830000 1.45540000 0.09170000
C -3.06660000 0.12800000 0.06930000
C 3.44650000 0.26500000 -0.30600000
H -0.85190000 -0.92890000 1.34050000
H -0.84900000 0.80310000 1.62060000
H -1.43550000 1.18260000 -0.79770000
H -1.41010000 -0.57380000 -1.06730000
H 0.80010000 2.17390000 0.73500000
H 3.24380000 -1.76600000 -0.53940000
H 3.15600000 2.42230000 0.08740000
H -5.58080000 1.01340000 -1.13870000
H -5.53820000 -0.61020000 -1.31290000
29
Properties=species:S:1:pos:R:3 REF_energy=-0.09004724865247216
O -0.51040000 0.64780000 0.08050000
O 2.07930000 1.72180000 0.20200000
N -1.02490000 -1.49740000 -0.29170000
N 0.35260000 -1.38060000 -0.30100000
N 4.21740000 0.44910000 -0.82180000
C -2.87400000 0.17650000 0.04850000
C -1.41120000 -0.31490000 -0.07170000
C -3.84300000 -1.01050000 -0.14260000
C -3.15720000 1.24780000 -1.02710000
C -3.19490000 0.81110000 1.41960000
C 0.60740000 -0.11210000 -0.08010000
C 3.18230000 -0.36730000 -0.18220000
C 1.89050000 0.48770000 -0.00110000
C 3.68620000 -0.85880000 1.16860000
H -4.88800000 -0.68640000 -0.07910000
H -3.70280000 -1.48250000 -1.12220000
H -3.68460000 -1.78090000 0.62130000
H -2.96200000 0.85480000 -2.03180000
H -4.20140000 1.57880000 -0.99530000
H -2.52240000 2.13120000 -0.89220000
H -4.24010000 1.13420000 1.48120000
H -3.01210000 0.09760000 2.23140000
H -2.56120000 1.68520000 1.60940000
H 2.96210000 -1.21750000 -0.83600000
H 2.93150000 -1.48650000 1.65520000
H 3.90050000 -0.02500000 1.84720000
H 4.59870000 -1.45450000 1.05780000
H 4.43070000 1.25820000 -0.23980000
H 3.86810000 0.81280000 -1.70750000
24
Properties=species:S:1:pos:R:3 REF_energy=-0.05783342835754657
O 3.96900000 1.01220000 -0.13450000
O 2.49710000 0.33030000 1.45380000
C -0.52730000 0.15050000 -0.26200000
C 0.64330000 -0.59150000 -0.48890000
C -1.71040000 -0.52380000 0.12330000
C 1.92870000 0.05910000 -0.89880000
C 0.64740000 -1.97840000 -0.33820000
C -0.54970000 1.54700000 -0.40920000
C -1.68800000 -1.92030000 0.27040000
C -2.88110000 0.21810000 0.34990000
C -0.51600000 -2.64160000 0.04070000
C -1.72180000 2.26830000 -0.18000000
C -2.88520000 1.60510000 0.19880000
C 2.79410000 0.46510000 0.27470000
H 1.77040000 0.91870000 -1.55620000
H 2.51390000 -0.65430000 -1.49530000
H 1.55150000 -2.55710000 -0.50940000
H 0.32850000 2.12210000 -0.68560000
H -2.58560000 -2.45960000 0.56590000
H -3.80210000 -0.27930000 0.64700000
H -0.51210000 -3.72130000 0.15880000
H -1.72540000 3.34850000 -0.29340000
H -3.79700000 2.16730000 0.37810000
H 4.53210000 1.27720000 0.62380000
25
Properties=species:S:1:pos:R:3 REF_energy=-0.06359751456784979
O -3.16320000 0.90410000 1.08310000
N -0.79300000 0.38120000 -0.53830000
N 0.82180000 1.87840000 -0.19140000
N 0.47020000 -1.67160000 -0.23720000
N 2.80880000 -1.20520000 0.28190000
N 3.66680000 1.02220000 0.45560000
C -2.10500000 -0.14540000 -0.82650000
C -2.95100000 -0.34750000 0.43390000
C 0.33920000 -0.33720000 -0.27850000
C 1.32860000 0.60940000 -0.06570000
C -0.45240000 1.70640000 -0.47530000
C -4.31930000 -0.91530000 0.08320000
C 2.60320000 0.13280000 0.22410000
C 1.74530000 -2.01230000 0.05110000
H -1.97770000 -1.08900000 -1.36900000
H -2.58750000 0.56600000 -1.50830000
H -2.44100000 -1.00780000 1.14340000
H -1.16990000 2.49810000 -0.64360000
H -4.23040000 -1.89470000 -0.39650000
H -4.93020000 -1.02370000 0.98600000
H -4.86720000 -0.24480000 -0.58830000
H -3.59960000 1.50090000 0.45130000
H 1.94620000 -3.07690000 0.10560000
H 3.51580000 2.02090000 0.41400000
H 4.58350000 0.65130000 0.66520000
23
Properties=species:S:1:pos:R:3 REF_energy=-0.05510485961121958
O 3.95960000 -1.66440000 0.40020000
O -0.78440000 -1.16540000 -1.36010000
O -2.86660000 -0.48510000 1.47740000
O -4.84220000 -0.34140000 0.37090000
N -1.48350000 0.79270000 -0.33340000
C 0.86180000 0.14290000 -0.32250000
C -0.50900000 -0.13430000 -0.72130000
C 1.76430000 -0.90670000 -0.15030000
C 1.27400000 1.45870000 -0.11170000
C -2.88980000 0.64610000 -0.63280000
C 3.07880000 -0.64050000 0.23250000
C 2.58850000 1.72500000 0.27130000
C 3.49100000 0.67530000 0.44320000
C -3.64250000 -0.10280000 0.43660000
H 1.45590000 -1.93770000 -0.30680000
H 0.61360000 2.30720000 -0.26440000
H -1.23070000 1.57900000 0.25560000
H -3.00210000 0.10910000 -1.57910000
H -3.30980000 1.65220000 -0.71650000
H 2.91190000 2.74980000 0.42850000
H 4.51270000 0.89630000 0.74000000
H 4.82110000 -1.29880000 0.66520000
H -3.37920000 -0.96950000 2.15920000
24
Properties=species:S:1:pos:R:3 REF_energy=-0.06113856175527044
O -1.01480000 1.66960000 0.81120000
O -2.94840000 -0.22000000 -1.54250000
O -4.92300000 -0.15610000 -0.42680000
N -1.48120000 -0.59070000 0.58700000
N 4.82990000 -0.48940000 -0.54440000
C 0.78290000 0.25400000 0.29820000
C -0.61840000 0.51150000 0.59090000
C 1.57410000 1.25690000 -0.26180000
C 1.33550000 -0.99570000 0.57840000
C 3.47090000 -0.23960000 -0.26170000
C 2.91810000 1.01010000 -0.54180000
C 2.67960000 -1.24250000 0.29840000
C -2.90160000 -0.49420000 0.83570000
C -3.70370000 -0.27380000 -0.42090000
H 1.16170000 2.23590000 -0.49170000
H 0.76410000 -1.79400000 1.04270000
H -1.13390000 -1.50670000 0.32350000
H 3.52430000 1.79930000 -0.97920000
H 3.10080000 -2.21810000 0.52730000
H -3.09130000 0.33730000 1.52070000
H -3.21570000 -1.43800000 1.29000000
H 5.23080000 -1.39560000 -0.34200000
H 5.40410000 0.23710000 -0.95090000
H -3.49300000 -0.07640000 -2.34570000
22
Properties=species:S:1:pos:R:3 REF_energy=-0.05137309923712596
O 4.18520000 1.44310000 -0.07040000
O 4.62420000 -0.77490000 0.16260000
O -4.94270000 1.19740000 0.31290000
O -4.67240000 -0.99660000 -0.24940000
C -0.41180000 -0.33170000 -0.07760000
C 2.35940000 -0.02090000 0.00120000
C 0.15030000 0.94080000 -0.17830000
C 0.41160000 -1.44890000 0.06260000
C 1.53590000 1.09620000 -0.13900000
C 1.79720000 -1.29340000 0.10200000
C -1.85690000 -0.49390000 -0.11950000
C 3.80410000 0.14110000 0.04200000
C -2.77550000 0.44580000 0.12060000
C -4.20860000 0.09580000 0.03020000
H -0.45400000 1.83470000 -0.30480000
H -0.00800000 -2.44880000 0.14420000
H 1.93210000 2.10430000 -0.22440000
H 2.42150000 -2.17620000 0.21210000
H -2.18720000 -1.50140000 -0.36810000
H -2.52570000 1.46450000 0.39370000
H 5.16090000 1.54130000 -0.04240000
H -5.90620000 1.01850000 0.26710000
25
Properties=species:S:1:pos:R:3 REF_energy=-0.06507261440844125
O 2.51890000 -2.04820000 0.55290000
O -1.85250000 -1.47810000 -1.21140000
O 4.05100000 -0.03820000 -0.60280000
O -3.55000000 -1.34700000 0.28770000
N -3.55260000 1.38060000 -0.01430000
C -1.30180000 0.97260000 0.87050000
C -2.29930000 0.67040000 -0.25860000
C 0.13150000 0.69870000 0.47690000
C 0.66620000 -0.55930000 0.69930000
C 0.88150000 1.71130000 -0.09770000
C 1.98930000 -0.81200000 0.33670000
C -2.64490000 -0.80680000 -0.33560000
C 2.20440000 1.45880000 -0.46030000
C 2.75820000 0.19720000 -0.24330000
H -1.54940000 0.39730000 1.77320000
H -1.37160000 2.02790000 1.16990000
H -1.92120000 0.99520000 -1.23490000
H 0.07130000 -1.34720000 1.15310000
H 0.45810000 2.69600000 -0.27310000
H 2.79200000 2.25360000 -0.91190000
H -3.37850000 2.38510000 -0.00040000
H -3.90730000 1.14800000 0.91330000
H 3.44100000 -2.04450000 0.24250000
H -2.09000000 -2.42830000 -1.26490000
H 4.42540000 0.77300000 -0.98730000
35
Properties=species:S:1:pos:R:3 REF_energy=-0.13004257259406726
O -0.89740000 -0.25280000 -1.98790000
N 0.36160000 -0.58800000 -0.08910000
N 3.11850000 0.01400000 0.39430000
N -1.92810000 0.10130000 0.04090000