6
Properties=species:S:1:pos:R:3 REF_energy=-0.02392784705533002 Folder_name=data_27
O 0.70790000 0.00000000 0.00000000
C -0.70790000 0.00000000 0.00000000
H -1.07320000 -0.76900000 0.68520000
H -1.07310000 -0.19470000 -1.01130000
H -0.99815743 0.79945375 0.27056927
H 0.99360000 -0.88040000 -0.29800000
6
Properties=species:S:1:pos:R:3 REF_energy=-0.024101908527591975 Folder_name=data_28
O 0.70790000 0.00000000 0.00000000
C -0.70790000 0.00000000 0.00000000
H -1.07320000 -0.76900000 0.68520000
H -1.07310000 -0.19470000 -1.01130000
H -1.03067871 0.88902688 0.30088463
H 0.99360000 -0.88040000 -0.29800000
6
Properties=species:S:1:pos:R:3 REF_energy=-0.024354138450156937 Folder_name=data_29
O 0.70790000 0.00000000 0.00000000
C -0.70790000 0.00000000 0.00000000
H -1.07320000 -0.76900000 0.68520000
H -1.07310000 -0.19470000 -1.01130000
H -1.06320000 0.97860000 0.33120000
H 0.99360000 -0.88040000 -0.29800000
6
Properties=species:S:1:pos:R:3 REF_energy=-0.024708153058640492 Folder_name=data_30
O 0.70790000 0.00000000 0.00000000
C -0.70790000 0.00000000 0.00000000
H -1.07320000 -0.76900000 0.68520000
H -1.07310000 -0.19470000 -1.01130000
H -1.09572129 1.06817312 0.36151537
H 0.99360000 -0.88040000 -0.29800000
6
Properties=species:S:1:pos:R:3 REF_energy=-0.02519668019869642 Folder_name=data_31
O 0.70790000 0.00000000 0.00000000
C -0.70790000 0.00000000 0.00000000
H -1.07320000 -0.76900000 0.68520000
H -1.07310000 -0.19470000 -1.01130000
H -1.12824257 1.15774625 0.39183073
H 0.99360000 -0.88040000 -0.29800000
6
Properties=species:S:1:pos:R:3 REF_energy=-0.02585579983843328 Folder_name=data_32
O 0.70790000 0.00000000 0.00000000
C -0.70790000 0.00000000 0.00000000
H -1.07320000 -0.76900000 0.68520000
H -1.07310000 -0.19470000 -1.01130000
H -1.16076386 1.24731937 0.42214610
H 0.99360000 -0.88040000 -0.29800000
6
Properties=species:S:1:pos:R:3 REF_energy=-0.026720692666038548 Folder_name=data_33
O 0.70790000 0.00000000 0.00000000
C -0.70790000 0.00000000 0.00000000
H -1.07320000 -0.76900000 0.68520000
H -1.07310000 -0.19470000 -1.01130000
H -1.19328515 1.33689249 0.45246147
H 0.99360000 -0.88040000 -0.29800000
6
Properties=species:S:1:pos:R:3 REF_energy=-0.02782382518094012 Folder_name=data_34
O 0.70790000 0.00000000 0.00000000
C -0.70790000 0.00000000 0.00000000
H -1.07320000 -0.76900000 0.68520000
H -1.07310000 -0.19470000 -1.01130000
H -1.22580643 1.42646562 0.48277684
H 0.99360000 -0.88040000 -0.29800000
6
Properties=species:S:1:pos:R:3 REF_energy=-0.029192211895093634 Folder_name=data_35
O 0.70790000 0.00000000 0.00000000
C -0.70790000 0.00000000 0.00000000
H -1.07320000 -0.76900000 0.68520000
H -1.07310000 -0.19470000 -1.01130000
H -1.25832772 1.51603874 0.51309220
H 0.99360000 -0.88040000 -0.29800000
6
Properties=species:S:1:pos:R:3 REF_energy=-0.030843440212694306 Folder_name=data_36
O 0.70790000 0.00000000 0.00000000
C -0.70790000 0.00000000 0.00000000
H -1.07320000 -0.76900000 0.68520000
H -1.07310000 -0.19470000 -1.01130000
H -1.29084900 1.60561186 0.54340757
H 0.99360000 -0.88040000 -0.29800000
6
Properties=species:S:1:pos:R:3 REF_energy=-0.03277919267313428 Folder_name=data_37
O 0.70790000 0.00000000 0.00000000
C -0.70790000 0.00000000 0.00000000
H -1.07320000 -0.76900000 0.68520000
H -1.07310000 -0.19470000 -1.01130000
H -1.32337029 1.69518499 0.57372294
H 0.99360000 -0.88040000 -0.29800000
