6
Properties=species:S:1:pos:R:3 REF_energy=-0.022493680834089924 Folder_name=data_0
O 0.20790000 0.00000000 0.00000000
C -0.70790000 0.00000000 0.00000000
H -1.07320000 -0.76900000 0.68520000
H -1.07310000 -0.19470000 -1.01130000
H -1.06320000 0.97860000 0.33120000
H 0.49360000 -0.88040000 -0.29800000
6
Properties=species:S:1:pos:R:3 REF_energy=-0.02312605651283345 Folder_name=data_1
O 0.30790000 0.00000000 0.00000000
C -0.70790000 0.00000000 0.00000000
H -1.07320000 -0.76900000 0.68520000
H -1.07310000 -0.19470000 -1.01130000
H -1.06320000 0.97860000 0.33120000
H 0.59360000 -0.88040000 -0.29800000
6
Properties=species:S:1:pos:R:3 REF_energy=-0.02369773616207138 Folder_name=data_2
O 0.40790000 0.00000000 0.00000000
C -0.70790000 0.00000000 0.00000000
H -1.07320000 -0.76900000 0.68520000
H -1.07310000 -0.19470000 -1.01130000
H -1.06320000 0.97860000 0.33120000
H 0.69360000 -0.88040000 -0.29800000
6
Properties=species:S:1:pos:R:3 REF_energy=-0.024083748176504938 Folder_name=data_3
O 0.50790000 0.00000000 0.00000000
C -0.70790000 0.00000000 0.00000000
H -1.07320000 -0.76900000 0.68520000
H -1.07310000 -0.19470000 -1.01130000
H -1.06320000 0.97860000 0.33120000
H 0.79360000 -0.88040000 -0.29800000
6
Properties=species:S:1:pos:R:3 REF_energy=-0.024281718486471815 Folder_name=data_4
O 0.60790000 0.00000000 0.00000000
C -0.70790000 0.00000000 0.00000000
H -1.07320000 -0.76900000 0.68520000
H -1.07310000 -0.19470000 -1.01130000
H -1.06320000 0.97860000 0.33120000
H 0.89360000 -0.88040000 -0.29800000
6
Properties=species:S:1:pos:R:3 REF_energy=-0.024354138450155882 Folder_name=data_5
O 0.70790000 0.00000000 0.00000000
C -0.70790000 0.00000000 0.00000000
H -1.07320000 -0.76900000 0.68520000
H -1.07310000 -0.19470000 -1.01130000
H -1.06320000 0.97860000 0.33120000
H 0.99360000 -0.88040000 -0.29800000
6
Properties=species:S:1:pos:R:3 REF_energy=-0.024386357314613916 Folder_name=data_6
O 0.80790000 0.00000000 0.00000000
C -0.70790000 0.00000000 0.00000000
H -1.07320000 -0.76900000 0.68520000
H -1.07310000 -0.19470000 -1.01130000
H -1.06320000 0.97860000 0.33120000
H 1.09360000 -0.88040000 -0.29800000
6
Properties=species:S:1:pos:R:3 REF_energy=-0.024462925442152894 Folder_name=data_7
O 0.90790000 0.00000000 0.00000000
C -0.70790000 0.00000000 0.00000000
H -1.07320000 -0.76900000 0.68520000
H -1.07310000 -0.19470000 -1.01130000
H -1.06320000 0.97860000 0.33120000
H 1.19360000 -0.88040000 -0.29800000
6
Properties=species:S:1:pos:R:3 REF_energy=-0.024656238696188326 Folder_name=data_8
O 1.00790000 0.00000000 0.00000000
C -0.70790000 0.00000000 0.00000000
H -1.07320000 -0.76900000 0.68520000
H -1.07310000 -0.19470000 -1.01130000
H -1.06320000 0.97860000 0.33120000
H 1.29360000 -0.88040000 -0.29800000
6
Properties=species:S:1:pos:R:3 REF_energy=-0.025020796815532542 Folder_name=data_9
O 1.10790000 0.00000000 0.00000000
C -0.70790000 0.00000000 0.00000000
H -1.07320000 -0.76900000 0.68520000
H -1.07310000 -0.19470000 -1.01130000
H -1.06320000 0.97860000 0.33120000
H 1.39360000 -0.88040000 -0.29800000
6
Properties=species:S:1:pos:R:3 REF_energy=-0.025590486468844653 Folder_name=data_10
O 1.20790000 0.00000000 0.00000000
C -0.70790000 0.00000000 0.00000000
H -1.07320000 -0.76900000 0.68520000
H -1.07310000 -0.19470000 -1.01130000
H -1.06320000 0.97860000 0.33120000
H 1.49360000 -0.88040000 -0.29800000
6
Properties=species:S:1:pos:R:3 REF_energy=-0.02638134477510956 Folder_name=data_11
O 1.30790000 0.00000000 0.00000000
C -0.70790000 0.00000000 0.00000000
H -1.07320000 -0.76900000 0.68520000
H -1.07310000 -0.19470000 -1.01130000
H -1.06320000 0.97860000 0.33120000
H 1.59360000 -0.88040000 -0.29800000
6
Properties=species:S:1:pos:R:3 REF_energy=-0.02739301030391539 Folder_name=data_12
O 1.40790000 0.00000000 0.00000000
C -0.70790000 0.00000000 0.00000000
H -1.07320000 -0.76900000 0.68520000
H -1.07310000 -0.19470000 -1.01130000
H -1.06320000 0.97860000 0.33120000
H 1.69360000 -0.88040000 -0.29800000
6
Properties=species:S:1:pos:R:3 REF_energy=-0.028611093659914266 Folder_name=data_13
O 1.50790000 0.00000000 0.00000000
C -0.70790000 0.00000000 0.00000000
H -1.07320000 -0.76900000 0.68520000
H -1.07310000 -0.19470000 -1.01130000
H -1.06320000 0.97860000 0.33120000
H 1.79360000 -0.88040000 -0.29800000
6
Properties=species:S:1:pos:R:3 REF_energy=-0.030006340897806794 Folder_name=data_14
O 1.60790000 0.00000000 0.00000000
C -0.70790000 0.00000000 0.00000000
H -1.07320000 -0.76900000 0.68520000
H -1.07310000 -0.19470000 -1.01130000
H -1.06320000 0.97860000 0.33120000
H 1.89360000 -0.88040000 -0.29800000
6
Properties=species:S:1:pos:R:3 REF_energy=-0.03153231894692454 Folder_name=data_15
O 1.70790000 0.00000000 0.00000000
C -0.70790000 0.00000000 0.00000000
H -1.07320000 -0.76900000 0.68520000
H -1.07310000 -0.19470000 -1.01130000
H -1.06320000 0.97860000 0.33120000
H 1.99360000 -0.88040000 -0.29800000
