6
Properties=species:S:1:pos:R:3 REF_energy=-0.024660330046436585 Folder_name=data_16
O 0.70790000 0.00000000 0.00000000
C -0.70790000 0.00000000 0.00000000
H -1.07320000 -0.76900000 0.68520000
H -1.07310000 -0.19470000 -1.01130000
H -1.06320000 0.97860000 0.33120000
H 0.93483727 -0.69931947 -0.23670741
6
Properties=species:S:1:pos:R:3 REF_energy=-0.0244877167110244 Folder_name=data_17
O 0.70790000 0.00000000 0.00000000
C -0.70790000 0.00000000 0.00000000
H -1.07320000 -0.76900000 0.68520000
H -1.07310000 -0.19470000 -1.01130000
H -1.06320000 0.97860000 0.33120000
H 0.96421863 -0.78985973 -0.26735370
6
Properties=species:S:1:pos:R:3 REF_energy=-0.024354138450158325 Folder_name=data_18
O 0.70790000 0.00000000 0.00000000
C -0.70790000 0.00000000 0.00000000
H -1.07320000 -0.76900000 0.68520000
H -1.07310000 -0.19470000 -1.01130000
H -1.06320000 0.97860000 0.33120000
H 0.99360000 -0.88040000 -0.29800000
6
Properties=species:S:1:pos:R:3 REF_energy=-0.024326888733287533 Folder_name=data_19
O 0.70790000 0.00000000 0.00000000
C -0.70790000 0.00000000 0.00000000
H -1.07320000 -0.76900000 0.68520000
H -1.07310000 -0.19470000 -1.01130000
H -1.06320000 0.97860000 0.33120000
H 1.02298137 -0.97094027 -0.32864630
6
Properties=species:S:1:pos:R:3 REF_energy=-0.024496256575060493 Folder_name=data_20
O 0.70790000 0.00000000 0.00000000
C -0.70790000 0.00000000 0.00000000
H -1.07320000 -0.76900000 0.68520000
H -1.07310000 -0.19470000 -1.01130000
H -1.06320000 0.97860000 0.33120000
H 1.05236273 -1.06148053 -0.35929259
6
Properties=species:S:1:pos:R:3 REF_energy=-0.02495840906189234 Folder_name=data_21
O 0.70790000 0.00000000 0.00000000
C -0.70790000 0.00000000 0.00000000
H -1.07320000 -0.76900000 0.68520000
H -1.07310000 -0.19470000 -1.01130000
H -1.06320000 0.97860000 0.33120000
H 1.08174410 -1.15202080 -0.38993889
6
Properties=species:S:1:pos:R:3 REF_energy=-0.025798706119597004 Folder_name=data_22
O 0.70790000 0.00000000 0.00000000
C -0.70790000 0.00000000 0.00000000
H -1.07320000 -0.76900000 0.68520000
H -1.07310000 -0.19470000 -1.01130000
H -1.06320000 0.97860000 0.33120000
H 1.11112546 -1.24256107 -0.42058519
6
Properties=species:S:1:pos:R:3 REF_energy=-0.02707463775040936 Folder_name=data_23
O 0.70790000 0.00000000 0.00000000
C -0.70790000 0.00000000 0.00000000
H -1.07320000 -0.76900000 0.68520000
H -1.07310000 -0.19470000 -1.01130000
H -1.06320000 0.97860000 0.33120000
H 1.14050683 -1.33310133 -0.45123148
6
Properties=species:S:1:pos:R:3 REF_energy=-0.028801038144195268 Folder_name=data_24
O 0.70790000 0.00000000 0.00000000
C -0.70790000 0.00000000 0.00000000
H -1.07320000 -0.76900000 0.68520000
H -1.07310000 -0.19470000 -1.01130000
H -1.06320000 0.97860000 0.33120000
H 1.16988819 -1.42364160 -0.48187778
6
Properties=species:S:1:pos:R:3 REF_energy=-0.03094103411285859 Folder_name=data_25
O 0.70790000 0.00000000 0.00000000
C -0.70790000 0.00000000 0.00000000
H -1.07320000 -0.76900000 0.68520000
H -1.07310000 -0.19470000 -1.01130000
H -1.06320000 0.97860000 0.33120000
H 1.19926956 -1.51418187 -0.51252408
6
Properties=species:S:1:pos:R:3 REF_energy=-0.033408214053804286 Folder_name=data_26
O 0.70790000 0.00000000 0.00000000
C -0.70790000 0.00000000 0.00000000
H -1.07320000 -0.76900000 0.68520000
H -1.07310000 -0.19470000 -1.01130000
H -1.06320000 0.97860000 0.33120000
H 1.22865092 -1.60472213 -0.54317037
